% Model:              C2EQPeEpsMin1Eps002.mph
% Version:            COMSOL 5.6.0.280
% Date:               May 4 2021, 16:04
% Dimension:          2
% Nodes:              10201
% Expressions:        8
% Description:        Velocity field, x component, Velocity field, y component, Dependent variable u4, Gradient of u4, x component, Gradient of u4, y component, , , 
% Length unit:        m
% x                       y                        u2 (m/s)                 v2 (m/s)                 u4 (1)                   u4x (1/m)                u4y (1/m)                u6 (1)                   u6x (1/m)                u6y (1/m)
-1                        -2                       NaN                      NaN                      NaN                      NaN                      NaN                      NaN                      NaN                      NaN
-0.97                     -2                       NaN                      NaN                      NaN                      NaN                      NaN                      NaN                      NaN                      NaN
-0.94                     -2                       NaN                      NaN                      NaN                      NaN                      NaN                      NaN                      NaN                      NaN
-0.91                     -2                       NaN                      NaN                      NaN                      NaN                      NaN                      NaN                      NaN                      NaN
-0.88                     -2                       NaN                      NaN                      NaN                      NaN                      NaN                      NaN                      NaN                      NaN
-0.85                     -2                       NaN                      NaN                      NaN                      NaN                      NaN                      NaN                      NaN                      NaN
-0.8200000000000001       -2                       NaN                      NaN                      NaN                      NaN                      NaN                      NaN                      NaN                      NaN
-0.79                     -2                       NaN                      NaN                      NaN                      NaN                      NaN                      NaN                      NaN                      NaN
-0.76                     -2                       NaN                      NaN                      NaN                      NaN                      NaN                      NaN                      NaN                      NaN
-0.73                     -2                       NaN                      NaN                      NaN                      NaN                      NaN                      NaN                      NaN                      NaN
-0.7                      -2                       NaN                      NaN                      NaN                      NaN                      NaN                      NaN                      NaN                      NaN
-0.67                     -2                       NaN                      NaN                      NaN                      NaN                      NaN                      NaN                      NaN                      NaN
-0.64                     -2                       NaN                      NaN                      NaN                      NaN                      NaN                      NaN                      NaN                      NaN
-0.61                     -2                       NaN                      NaN                      NaN                      NaN                      NaN                      NaN                      NaN                      NaN
-0.5800000000000001       -2                       NaN                      NaN                      NaN                      NaN                      NaN                      NaN                      NaN                      NaN
-0.55                     -2                       NaN                      NaN                      NaN                      NaN                      NaN                      NaN                      NaN                      NaN
-0.52                     -2                       NaN                      NaN                      NaN                      NaN                      NaN                      NaN                      NaN                      NaN
-0.49                     -2                       NaN                      NaN                      NaN                      NaN                      NaN                      NaN                      NaN                      NaN
-0.45999999999999996      -2                       NaN                      NaN                      NaN                      NaN                      NaN                      NaN                      NaN                      NaN
-0.43000000000000005      -2                       NaN                      NaN                      NaN                      NaN                      NaN                      NaN                      NaN                      NaN
-0.4                      -2                       NaN                      NaN                      NaN                      NaN                      NaN                      NaN                      NaN                      NaN
-0.37                     -2                       NaN                      NaN                      NaN                      NaN                      NaN                      NaN                      NaN                      NaN
-0.3400000000000001       -2                       NaN                      NaN                      NaN                      NaN                      NaN                      NaN                      NaN                      NaN
-0.31000000000000005      -2                       NaN                      NaN                      NaN                      NaN                      NaN                      NaN                      NaN                      NaN
-0.28                     -2                       NaN                      NaN                      NaN                      NaN                      NaN                      NaN                      NaN                      NaN
-0.25                     -2                       NaN                      NaN                      NaN                      NaN                      NaN                      NaN                      NaN                      NaN
-0.21999999999999997      -2                       NaN                      NaN                      NaN                      NaN                      NaN                      NaN                      NaN                      NaN
-0.19000000000000006      -2                       NaN                      NaN                      NaN                      NaN                      NaN                      NaN                      NaN                      NaN
-0.16000000000000003      -2                       NaN                      NaN                      NaN                      NaN                      NaN                      NaN                      NaN                      NaN
-0.13                     -2                       NaN                      NaN                      NaN                      NaN                      NaN                      NaN                      NaN                      NaN
-0.10000000000000009      -2                       NaN                      NaN                      NaN                      NaN                      NaN                      NaN                      NaN                      NaN
-0.07000000000000006      -2                       NaN                      NaN                      NaN                      NaN                      NaN                      NaN                      NaN                      NaN
-0.040000000000000036     -2                       NaN                      NaN                      NaN                      NaN                      NaN                      NaN                      NaN                      NaN
-0.010000000000000009     -2                       NaN                      NaN                      NaN                      NaN                      NaN                      NaN                      NaN                      NaN
0.020000000000000018      -2                       1.10181510343707         -0.6166002469471983      0.04789628737515026      0.1851340562892651       2.3348735188607246       0                        0                        0
0.050000000000000044      -2                       1.1002744541346314       -0.5894501847712755      0.053363790841600686     0.1781988044975745       2.6263695622706407       0                        0                        0
0.08000000000000007       -2                       1.0974104205765813       -0.5618259826475532      0.058724301738264435     0.16705641853047842      2.898047467228762        0                        0                        0
0.10999999999999988       -2                       1.0932616128321564       -0.5339117352554481      0.06377662964368638      0.16430346305209098      3.1463241889686926       0                        0                        0
0.1399999999999999        -2                       1.087883917965479        -0.5058726132621723      0.06856171187348865      0.1589695527727443       3.3821918478089006       0                        0                        0
0.16999999999999993       -2                       1.0813333005859895       -0.4778735895391901      0.07286984558299356      0.13647549441873896      3.602729658416917        0                        0                        0
0.19999999999999996       -2                       1.073683089306093        -0.45005597213416254     0.07676593756986706      0.12683392043620315      3.7977625715135472       0                        0                        0
0.22999999999999998       -2                       1.0650038405921713       -0.4225603616117912      0.08008774868517692      0.10198619593872203      3.9676190175364394       0                        0                        0
0.26                      -2                       1.0553792692652932       -0.3955010934060268      0.082913902185124        0.08943215892694636      4.112362754641085        0                        0                        0
0.29000000000000004       -2                       1.04488910352977         -0.3689922309166758      0.08513293271799101      0.06463654628062478      4.225328296401313        0                        0                        0
0.31999999999999984       -2                       1.0336219308957195       -0.34312075823773397     0.08683094826165848      0.050944055085727205     4.316000083478148        0                        0                        0
0.34999999999999987       -2                       1.0216611523709076       -0.31797369936317793     0.08794421679212817      0.02808533599017297      4.371943790266775        0                        0                        0
0.3799999999999999        -2                       1.0090951904868881       -0.2936120568501691      0.08855961191072291      0.014725439954205506     4.409875890181506        0                        0                        0
0.4099999999999999        -2                       0.996006381560685        -0.2700971354906001      0.08865250538256536      -0.004958013601213654    4.413306493675258        0                        0                        0
0.43999999999999995       -2                       0.9824789015406045       -0.24746657964412405     0.08830522884012842      -0.016919940060369846    4.403639708103474        0                        0                        0
0.47                      -2                       0.9685903152140667       -0.22575861158522556     0.08752155075978489      -0.03280711143496566     4.362115409191598        0                        0                        0
0.5                       -2                       0.9544175953239843       -0.2049909247410972      0.08637560978468725      -0.04272124922083773     4.312374956300169        0                        0                        0
0.53                      -2                       0.9400309630312498       -0.18518207441133416     0.08488915524617967      -0.0546955054236271      4.2349945812654415       0                        0                        0
0.56                      -2                       0.9254983505001344       -0.1663335293137794      0.0831261061962826       -0.062276271990724434    4.153795622321859        0                        0                        0
0.5899999999999999        -2                       0.9108811349361111       -0.14844789135784917     0.0811174029240843       -0.07058012048461645     4.049966702785169        0                        0                        0
0.6199999999999999        -2                       0.8962373549910468       -0.13151407384588037     0.07891605624646722      -0.07582492282662763     3.945985566874217        0                        0                        0
0.6499999999999999        -2                       0.8816189477873868       -0.11552236253080009     0.0765555806931562       -0.08091932529986084     3.8245427202334548       0                        0                        0
0.6799999999999999        -2                       0.8670739855551872       -0.10045246892217065     0.07407835418454489      -0.08402058805273108     3.705796220174219        0                        0                        0
0.71                      -2                       0.8526450593581495       -0.08628567245919        0.07151602905388658      -0.0864685531426118      3.5744590741470605       0                        0                        0
0.74                      -2                       0.8383707597115648       -0.0729953754409481      0.06890123978794635      -0.08773349014924682     3.4478730911816293       0                        0                        0
0.77                      -2                       0.8242849004168201       -0.06055669640091073     0.06626121649737472      -0.08811464495427201     3.312987584048579        0                        0                        0
0.7999999999999998        -2                       0.8104174279140943       -0.04893910648865813     0.06362007392335443      -0.08790014660496051     3.1842037516491595       0                        0                        0
0.8299999999999998        -2                       0.7967942337414919       -0.03811389717276479     0.06099950162854834      -0.08675503792069911     3.0506941053918495       0                        0                        0
0.8599999999999999        -2                       0.7834376428910974       -0.028048482940877105    0.05841644861320661      -0.08541999230086188     2.9240522265247093       0                        0                        0
0.8899999999999999        -2                       0.7703666168703668       -0.018712165093439235    0.05588694282959089      -0.08321900597247249     2.795512478884444        0                        0                        0
0.9199999999999999        -2                       0.7575969414604892       -0.010071721973624234    0.053422113272004725     -0.08109315336498071     2.674148532468943        0                        0                        0
0.95                      -2                       0.7451416699993322       -0.002095855605498088    0.05103281643893982      -0.07822376884153481     2.553013531232208        0                        0                        0
0.98                      -2                       0.7330111054809607       0.00524825738170909      0.04872561113530551      -0.07559043634055074     2.439022514409642        0                        0                        0
1.0099999999999998        -2                       0.7212133736533056       0.011991501747403238     0.046506984379902555     -0.07235687090818996     2.3267727157143043       0                        0                        0
1.04                      -2                       0.7097542730179117       0.01816558216630694      0.04438002903696723      -0.06944625724937127     2.221397676753491        0                        0                        0
1.0699999999999998        -2                       0.6986378993806086       0.023800265179068716     0.0423477660750776       -0.06607658106589441     2.118766308624691        0                        0                        0
1.1                       -2                       0.6878664196283583       0.028925662658184553     0.04041075904619786      -0.0630663019830725      2.0225869172878337       0                        0                        0
1.13                      -2                       0.6774406941480317       0.03356995917486324      0.03856943474504575      -0.059723323216057535    1.9297501969178559       0                        0                        0
1.1600000000000001        -2                       0.6673600158616659       0.03776138694357587      0.03682259374714171      -0.05674338032039964     1.8428545212549878       0                        0                        0
1.19                      -2                       0.6576226955212315       0.04152626845456863      0.035168836034559066     -0.05353674230019417     1.7595949585896258       0                        0                        0
1.2199999999999998        -2                       0.6482257959513521       0.044890807745128526     0.033605805405547175     -0.05067670863921279     1.6817261354081643       0                        0                        0
1.25                      -2                       0.639165658822804        0.04787932106041164      0.032130907319870575     -0.047674588281769105    1.6075655362096481       0                        0                        0
1.2799999999999998        -2                       0.6304376549631594       0.05051593508410507      0.03074109263565764      -0.04499144969222349     1.538240699149257        0                        0                        0
1.31                      -2                       0.6220366409168022       0.052822913546176076     0.029433066158926418     -0.04223096565628767     1.4725436866846677       0                        0                        0
1.3399999999999999        -2                       0.6139567391391897       0.05482232577731418      0.02820342865891146      -0.03975662387137094     1.411146147737302        0                        0                        0
1.37                      -2                       0.606191719415015        0.056534405117807815     0.027048551861791705     -0.03725256793362453     1.3531973825212005       0                        0                        0
1.4                       -2                       0.5987348173840161       0.057979229957733164     0.02596493037031902      -0.035000457120479715    1.2990450889098362       0                        0                        0
1.4299999999999997        -2                       0.5915790404792872       0.059175071439798214     0.024948863456205055     -0.03275228865536442     1.248104410209834        0                        0                        0
1.46                      -2                       0.5847170292166944       0.06014011302297671      0.02399690534513193      -0.030722875884166438    1.2004985734430396       0                        0                        0
1.4899999999999998        -2                       0.5781412903296972       0.06089076135423225      0.02310545777860791      -0.028720109090848163    1.1558384716777819       0                        0                        0
1.52                      -2                       0.5718441023108736       0.061443418392661216     0.02227124067000541      -0.02690525626034592     1.1140963886904747       0                        0                        0
1.5499999999999998        -2                       0.5658176803098173       0.061812741455438865     0.021490867525434804     -0.025131462650672013    1.075025900761414        0                        0                        0
1.58                      -2                       0.5600541253097575       0.06201347321052631      0.02076128580792512      -0.02351774661808191     1.0385016724375153       0                        0                        0
1.6099999999999999        -2                       0.5545455264555615       0.06205864567533651      0.020079381836081666     -0.021953424624404704    1.0043802275103066       0                        0                        0
1.6399999999999997        -2                       0.5492839517889249       0.06196146720500431      0.019442360856868523     -0.020524568762674094    0.9724765531036973       0                        0                        0
1.67                      -2                       0.5442614942275626       0.061733471394595583     0.01884740898522721      -0.01914912375873028     0.9427206522635081       0                        0                        0
1.6999999999999997        -2                       0.5394703008144932       0.06138645596259068      0.01829199770025014      -0.017887709715971124    0.9148942875168893       0                        0                        0
1.73                      -2                       0.5349025687518538       0.06093058169696711      0.01777361688866504      -0.016680759480962842    0.8889792772523201       0                        0                        0
1.7599999999999998        -2                       0.5305506095210777       0.060376355383633735     0.017289998388689953     -0.01556937947849065     0.8647421772758286       0                        0                        0
1.79                      -2                       0.5264068013094511       0.05973268663596628      0.016838925121065433     -0.01451156417618931     0.8422008258286968       0                        0                        0
1.8199999999999998        -2                       0.5224636840329587       0.059008905370527845     0.016418374584951375     -0.013533553730928127    0.8211184959720434       0                        0                        0
1.85                      -2                       0.5187138742679166       0.058212785954063234     0.016026403296351042     -0.012606993065125598    0.8015376234238724       0                        0                        0
1.88                      -2                       0.5151501870831523       0.05735258889284273      0.0156612148188932       -0.011746859328933983    0.7832257892346406       0                        0                        0
1.9099999999999997        -2                       0.5117655192635593       0.05643506251812004      0.015321115335519138     -0.010935366553667912    0.766241837923789        0                        0                        0
1.94                      -2                       0.5085529938767146       0.05546749830724053      0.015004512696028956     -0.01017900309777824     0.7503622188370769       0                        0                        0
1.9699999999999998        -2                       0.505505817191955        0.05445572053509949      0.014709937175371808     -0.00946813767104406     0.7356563713288585       0                        0                        0
2                         -2                       0.5026174420257934       0.05340614481451124      0.014435978758639528     -0.008802894855884322    0.7219120932046968       0                        0                        0
-1                        -1.97                    NaN                      NaN                      NaN                      NaN                      NaN                      NaN                      NaN                      NaN
-0.97                     -1.97                    NaN                      NaN                      NaN                      NaN                      NaN                      NaN                      NaN                      NaN
-0.94                     -1.97                    NaN                      NaN                      NaN                      NaN                      NaN                      NaN                      NaN                      NaN
-0.91                     -1.97                    NaN                      NaN                      NaN                      NaN                      NaN                      NaN                      NaN                      NaN
-0.88                     -1.97                    NaN                      NaN                      NaN                      NaN                      NaN                      NaN                      NaN                      NaN
-0.85                     -1.97                    NaN                      NaN                      NaN                      NaN                      NaN                      NaN                      NaN                      NaN
-0.8200000000000001       -1.97                    NaN                      NaN                      NaN                      NaN                      NaN                      NaN                      NaN                      NaN
-0.79                     -1.97                    NaN                      NaN                      NaN                      NaN                      NaN                      NaN                      NaN                      NaN
-0.76                     -1.97                    NaN                      NaN                      NaN                      NaN                      NaN                      NaN                      NaN                      NaN
-0.73                     -1.97                    NaN                      NaN                      NaN                      NaN                      NaN                      NaN                      NaN                      NaN
-0.7                      -1.97                    NaN                      NaN                      NaN                      NaN                      NaN                      NaN                      NaN                      NaN
-0.67                     -1.97                    NaN                      NaN                      NaN                      NaN                      NaN                      NaN                      NaN                      NaN
-0.64                     -1.97                    NaN                      NaN                      NaN                      NaN                      NaN                      NaN                      NaN                      NaN
-0.61                     -1.97                    NaN                      NaN                      NaN                      NaN                      NaN                      NaN                      NaN                      NaN
-0.5800000000000001       -1.97                    NaN                      NaN                      NaN                      NaN                      NaN                      NaN                      NaN                      NaN
-0.55                     -1.97                    NaN                      NaN                      NaN                      NaN                      NaN                      NaN                      NaN                      NaN
-0.52                     -1.97                    NaN                      NaN                      NaN                      NaN                      NaN                      NaN                      NaN                      NaN
-0.49                     -1.97                    NaN                      NaN                      NaN                      NaN                      NaN                      NaN                      NaN                      NaN
-0.45999999999999996      -1.97                    NaN                      NaN                      NaN                      NaN                      NaN                      NaN                      NaN                      NaN
-0.43000000000000005      -1.97                    NaN                      NaN                      NaN                      NaN                      NaN                      NaN                      NaN                      NaN
-0.4                      -1.97                    NaN                      NaN                      NaN                      NaN                      NaN                      NaN                      NaN                      NaN
-0.37                     -1.97                    NaN                      NaN                      NaN                      NaN                      NaN                      NaN                      NaN                      NaN
-0.3400000000000001       -1.97                    NaN                      NaN                      NaN                      NaN                      NaN                      NaN                      NaN                      NaN
-0.31000000000000005      -1.97                    NaN                      NaN                      NaN                      NaN                      NaN                      NaN                      NaN                      NaN
-0.28                     -1.97                    NaN                      NaN                      NaN                      NaN                      NaN                      NaN                      NaN                      NaN
-0.25                     -1.97                    NaN                      NaN                      NaN                      NaN                      NaN                      NaN                      NaN                      NaN
-0.21999999999999997      -1.97                    NaN                      NaN                      NaN                      NaN                      NaN                      NaN                      NaN                      NaN