% Model:              C2DNSEps002PeEps.mph
% Version:            COMSOL 5.6.0.280
% Date:               May 4 2021, 14:02
% Dimension:          2
% Nodes:              10201
% Expressions:        5
% Description:        Velocity field, x component, Velocity field, y component, , , 
% Length unit:        m
% x                       y                        u (m/s)                  v (m/s)                  u2 (1)                   u2x (1/m)                u2y (1/m)
-1                        -2                       1                        0                        0                        -2.0130798304008668E-10  0
-0.97                     -2                       0.9359660766004066       -0.13605656724426327     8.650401062590195E-11    6.023909650407042E-9     3.6131484890120645E-9
-0.94                     -2                       0.9017006541801705       -0.20822778049980928     3.8501140150150257E-10   2.234846487568766E-8     2.0785503126311818E-8
-0.91                     -2                       0.8793216684634764       -0.27734567680714317     1.4181705874910088E-9    6.866764392739972E-8     8.682735909367266E-8
-0.88                     -2                       0.8642085624298095       -0.3410462912233408      5.13829632164742E-9      1.4999344701612843E-7    2.8342360609091203E-7
-0.85                     -2                       0.8546188088743263       -0.4004095756462105      1.77626592311243E-8      6.91630746948996E-7      7.346093127894511E-7
-0.8200000000000001       -2                       0.849701506561204        -0.4558774189087084      5.2026136133154945E-8    2.0449242321225626E-6    2.5055862227224323E-6
-0.79                     -2                       0.8486350507151009       -0.5076125569345848      1.4292170813384273E-7    5.28780197145566E-6      7.5850775743042904E-6
-0.76                     -2                       0.8507918878701491       -0.5555476510609837      3.7999306706298877E-7    1.1758664048266099E-5    2.0323905788511316E-5
-0.73                     -2                       0.855660873216855        -0.5996378320416893      1.0041763305893278E-6    2.164798664302899E-5     4.803423710746003E-5
-0.7                      -2                       0.8628295929518773       -0.6397463586064278      2.4080423706505355E-6    7.194308269438477E-5     1.0894473823077444E-4
-0.67                     -2                       0.8719216392836143       -0.6759895137115574      5.421905800264548E-6     1.545897215421579E-4     2.648925849663961E-4
-0.64                     -2                       0.8825977647127256       -0.7083670964571386      1.171574192757205E-5     3.010395038734742E-4     5.898227970982016E-4
-0.61                     -2                       0.8945564840584408       -0.7368895577269822      2.458825808301672E-5     5.313464341616584E-4     0.0012086315741897521
-0.5800000000000001       -2                       0.9075255998212151       -0.7615561224587609      4.962464738065255E-5     0.0011377461856807356    0.0021701467816391713
-0.55                     -2                       0.9212669365783506       -0.7823973127257579      9.374179501503049E-5     0.0020385022494306872    0.004356783871512103
-0.52                     -2                       0.9355517600277333       -0.799526297814049       1.7029128919891442E-4    0.0033960463746286204    0.008180832797635998
-0.49                     -2                       0.9501639948527026       -0.8130141893027835      2.9941686867507197E-4    0.0052897577758599075    0.014460256289802654
-0.45999999999999996      -2                       0.9649032164783873       -0.8229478173130511      5.113684186863381E-4     0.007753785614001446     0.02422945751350405
-0.43000000000000005      -2                       0.9795788350755626       -0.8293770061454477      8.317601453846726E-4     0.013605662832554271     0.03765502648312811
-0.4                      -2                       0.9940301361721959       -0.8324535930689725      0.001303315752123262     0.01950830591071531      0.06083065938528525
-0.37                     -2                       1.0080946201519125       -0.8323125014869136      0.001982843508146404     0.026591555082123935     0.09389326848324969
-0.3400000000000001       -2                       1.0216200007425444       -0.8290905094838759      0.002936208083330126     0.03465107669304185      0.1392425567451523
-0.31000000000000005      -2                       1.0344621889710501       -0.822924591196937       0.004220269654387575     0.05095302804412123      0.18946401007624344
-0.28                     -2                       1.0464916614266093       -0.8139508851985633      0.005847304989888918     0.06393266870130329      0.2694977710068125
-0.25                     -2                       1.0576044035538885       -0.8023686758017432      0.007906750969850614     0.07710836831626508      0.37037301909129544
-0.21999999999999997      -2                       1.067694828079071        -0.7883564063951918      0.01045354288520757      0.0897623789550362       0.493822793680001
-0.19000000000000006      -2                       1.0766711693765394       -0.7721010886857153      0.013529439599929435     0.10123148121658476      0.6408022561308926
-0.16000000000000003      -2                       1.0844424383601925       -0.7537773392488569      0.017026651523057167     0.1319159803252635       0.7856117129639536
-0.13                     -2                       1.090956145774666        -0.7335905883760154      0.020965692914362434     0.14305227646667365      0.9826674925238825
-0.10000000000000009      -2                       1.096165720586757        -0.7117494877622915      0.02536469447516071      0.15079661538581934      1.2026458588271278
-0.07000000000000006      -2                       1.100033654250085        -0.6884606908275402      0.03018361165604468      0.1557698432754823       1.4429033241674138
-0.040000000000000036     -2                       1.1025336966164292       -0.6639257961999921      0.035272935404286984     0.183518406607338        1.6606237518793392
-0.010000000000000009     -2                       1.1036469384539898       -0.6383498068533261      0.040443612586131224     0.18961292583316333      1.9280873822752618
0.020000000000000018      -2                       1.1033968797806368       -0.6119232417043348      0.045670974619665676     0.1747792485029386       2.1966344939413753
0.050000000000000044      -2                       1.101798014608913        -0.5848526280232597      0.050997327767053444     0.168367316942242        2.429549332765291
0.08000000000000007       -2                       1.0988837676749117       -0.5573159117628207      0.056270440932402147     0.1503589737442697       2.7012013804512525
0.10999999999999988       -2                       1.0946813638417574       -0.5295127892512328      0.0611111900912576       0.17235763684609628      2.9217717398545813
0.1399999999999999        -2                       1.0892529041962018       -0.5015940579377435      0.06565661852390606      0.15173015956181546      3.1579535623241832
0.16999999999999993       -2                       1.0826630901016978       -0.47371787781405034     0.06987712045580825      0.128958261653708        3.3752904570518787
0.19999999999999996       -2                       1.074981770198347        -0.4460302050970037      0.07372123672862255      0.10522704976064899      3.5715861098950072
0.22999999999999998       -2                       1.0662809518763303       -0.41867300055100676     0.07704090835610959      0.11608439207182093      3.734609097833675
0.26                      -2                       1.0566330451324712       -0.39177320135202864     0.079694008661204        0.08948161640986976      3.880339294309427
0.29000000000000004       -2                       1.0461298392635388       -0.36541695859847717     0.08188650989642801      0.06392177247476978      3.9985175444501726
0.31999999999999984       -2                       1.0348576742527185       -0.33969883806076046     0.08359832033650964      0.04003831911587154      4.089487331695244
0.34999999999999987       -2                       1.022903723567651        -0.31469947736669884     0.08481874241771806      0.018209408424826493     4.153879381190615
0.3799999999999999        -2                       1.0103462443992912       -0.2905096658882938      0.08538695630174516      0.01967151717698414      4.205373859177806
0.4099999999999999        -2                       0.9972722508614194       -0.2671589203167337      0.08550934801048136      -0.0012235968876052425   4.216868668989618
0.43999999999999995       -2                       0.9837657109377953       -0.24468815603191116     0.08522811763192537      -0.01937247920642216     4.20590824847221
0.47                      -2                       0.9699064481425991       -0.22313090329005544     0.08456337013672248      -0.03484157966818832     4.174519580288931
0.5                       -2                       0.9557687854772636       -0.20252099583793087     0.08349704235060726      -0.036246939406160514    4.150169824437095
0.53                      -2                       0.941420490667247        -0.18287191835388206     0.08208305334692621      -0.04947147149227514     4.08000824511112
0.56                      -2                       0.9269297519522764       -0.16417600888176145     0.08041826239671612      -0.06011668451431147     3.9963880614323
0.5899999999999999        -2                       0.9123592889789603       -0.14643299760038725     0.07853168063598753      -0.06846290154139348     3.9013747446811626
0.6199999999999999        -2                       0.8977665940672971       -0.1296361705656118      0.07645410719374619      -0.0700419946080295      3.8245417466519003
0.6499999999999999        -2                       0.883203091673251        -0.11378900813736408     0.07419171410583776      -0.07608073511593536     3.708344757860983
0.6799999999999999        -2                       0.8687142061279836       -0.09885590268085132     0.07182560066426795      -0.08028564921737642     3.5871714226517923
0.71                      -2                       0.854343361329988        -0.08481658880479918     0.06938066982578069      -0.08295058603693627     3.4624552161249893
0.74                      -2                       0.8401290323396824       -0.07164722036902048     0.06688180695834757      -0.08433692643652417     3.335463376042504
0.77                      -2                       0.8261061846711794       -0.05932762367560668     0.06435154337307639      -0.08434731258155309     3.227330721981636
0.7999999999999998        -2                       0.8123025013678461       -0.04782679965973505     0.06181936494438599      -0.08423893685961907     3.097018676355859
0.8299999999999998        -2                       0.7987430948065867       -0.037110583970577614    0.05930496545400003      -0.08330437870840283     2.9682786578690217
0.8599999999999999        -2                       0.7854504305381782       -0.027148094799779567    0.056823564047731485     -0.08172254811593072     2.8417217291657857
0.8899999999999999        -2                       0.7724438683423043       -0.01790855290953424     0.0543901319997587       -0.08050625508225434     2.7319783351808193
0.9199999999999999        -2                       0.7597404307199497       -0.009363988851631718    0.05202262519100528      -0.07810714564874027     2.610313608970583
0.95                      -2                       0.7473501912736982       -0.0014780067765745738   0.04972420585960921      -0.07538497732344362     2.492738216805635
0.98                      -2                       0.735283692883718        0.005781250821836458     0.04750184090507406      -0.07243870998082531     2.37940696158441
1.0099999999999998        -2                       0.7235489089175049       0.012445367504559048     0.04536112941513509      -0.06934661708546028     2.270437040675473
1.04                      -2                       0.7121538349216567       0.018543699816288416     0.04331301151657938      -0.06719457615158562     2.1742438783237126
1.0699999999999998        -2                       0.7011005509045769       0.024106531782710675     0.041354963161719736     -0.06391669328665224     2.0744605201959536
1.1                       -2                       0.6903906008193219       0.029163891680527146     0.03948600982785609      -0.06064800006261357     1.9793953717187764
1.13                      -2                       0.68002470237718         0.03374456595271982      0.03770669194672963      -0.05742122718303568     1.8889557611650973
1.1600000000000001        -2                       0.6700030452607221       0.03787651400107048      0.036019007548437586     -0.05509106603643468     1.8075247923030333
1.19                      -2                       0.6603248009223155       0.04158561246909015      0.034423615260766864     -0.05194426198631866     1.7266795422237002
1.2199999999999998        -2                       0.6509851832498879       0.04489701471673471      0.03291352761650378      -0.04890875198426254     1.650187260360235
1.25                      -2                       0.6419804052832643       0.04783565619594187      0.03148670734307316      -0.04599251959004724     1.57787777723968
1.2799999999999998        -2                       0.6333058123657961       0.050425411075268683     0.030140697945730474     -0.04320034336633785     1.5095880085995939
1.31                      -2                       0.6249583987148292       0.05269014622069791      0.028876754406377072     -0.041062559257221756    1.4477856714602535
1.3399999999999999        -2                       0.6169305628858623       0.05464916757808827      0.02768740072340298      -0.038486121450049864    1.3878508915768502
1.37                      -2                       0.6092156958837808       0.0563231667588687       0.026569102784923866     -0.03604491741541749     1.3313986730342406
1.4                       -2                       0.601806990566114        0.05773201467131972      0.025518728183359245     -0.03373516451459248     1.2782633821091893
1.4299999999999997        -2                       0.5946982883868438       0.05889562050078331      0.02453440903183162      -0.031886112253916646    1.2292598574792868
1.46                      -2                       0.5878826980897734       0.059830881385025396     0.023612658251229234     -0.029808043172613284    1.183078033394241
1.4899999999999998        -2                       0.5813516100156814       0.06055329762377772      0.022748705719045654     -0.027852853932311933    1.139663484086182
1.52                      -2                       0.575097231772617        0.06107906598123065      0.02193950334257822      -0.0260141953540243      1.0988741479175828
1.5499999999999998        -2                       0.569111714335335        0.06142359644839594      0.021182128241808634     -0.024477478030614574    1.0605352836120723
1.58                      -2                       0.5633888798936866       0.061603177904701725     0.020475017676327256     -0.02284977692763701     1.0253240168224655
1.6099999999999999        -2                       0.5579194433660776       0.06162815867155268      0.019813655938637795     -0.021323101706255985    0.992254854005188
1.6399999999999997        -2                       0.552695372846722        0.061511523899792926     0.019195397437918964     -0.019891250929296205    0.9612156835739191
1.67                      -2                       0.5477086554084173       0.06126547058126225      0.01861769760222755      -0.018548478078114914    0.9321002264776512
1.6999999999999997        -2                       0.5429522387606227       0.06090299221075226      0.018078626120178107     -0.017389620725181756    0.9048322057378384
1.73                      -2                       0.5384183998938405       0.060433352891173964     0.017575578558118286     -0.016213543751700636    0.879812076632831
1.7599999999999998        -2                       0.5340988896392065       0.0598656281667346       0.017106054460504515     -0.01511116014301529     0.8563435791440024
1.79                      -2                       0.5299860023430522       0.05920941168312155      0.016667999238691285     -0.014077780274194868    0.8343461801883739
1.8199999999999998        -2                       0.5260723607872922       0.058474174088949483     0.01625954069165508      -0.013152789528219225    0.8133858247777596
1.85                      -2                       0.522351523942733        0.057669316326070794     0.015879051551706064     -0.01225212409930938     0.7945681322133749
1.88                      -2                       0.5188155867311757       0.05680029945330496      0.015524506746172156     -0.011407359515452742    0.7769314956945215
1.9099999999999997        -2                       0.5154573777535145       0.05587455970057919      0.015194291124214656     -0.010614940014989763    0.7604161684816266
1.94                      -2                       0.5122698933727607       0.05489901203155106      0.014886886481998122     -0.00987157715741379     0.7449648741166841
1.9699999999999998        -2                       0.5092470392967322       0.05388174519164904      0.01460094450693992      -0.009191221179799546    0.7303499008291753
2                         -2                       0.5063821305137378       0.05282694078298842      0.014335090195658042     -0.00854430884280004     0.717195251325364
-1                        -1.97                    1                        -5.969273188329653E-16   7.015529774343733E-27    2.1687570442605934E-9    -1.777825216137604E-25
-0.97                     -1.97                    0.9846715191206181       -0.09311889267528713     1.757723109680515E-10    1.043191425694503E-8     4.17953582267065E-9
-0.94                     -1.97                    0.9571334190812127       -0.18033251182093898     9.472549417528155E-10    4.316817267078652E-8     1.669739955710901E-8
-0.91                     -1.97                    0.9341219698073282       -0.2575991645717083      3.625558764741831E-9     1.5748883889677385E-7    7.256698088887449E-8
-0.88                     -1.97                    0.9170412222153154       -0.327431753756207       1.2300958306571514E-8    5.237704804047361E-7     2.477486906053954E-7
-0.85                     -1.97                    0.9051963566342133       -0.3918022136207353      3.843039744529673E-8     1.5481795158988938E-6    7.236141562852148E-7
-0.8200000000000001       -1.97                    0.8976259405082939       -0.45145604010879786     1.1426940028375173E-7    3.908993809243322E-6     1.7054666529886231E-6
-0.79                     -1.97                    0.8936540519626912       -0.5066323611416849      3.293820122117137E-7     1.043184698595413E-5     5.563683622693867E-6
-0.76                     -1.97                    0.8927160724915794       -0.5574474169872796      8.78234415575733E-7      2.812114092667863E-5     1.5230992475959563E-5
-0.73                     -1.97                    0.8943605348338667       -0.6039400460094897      2.1921404202818805E-6    6.829163344365475E-5     3.7258128762462133E-5
-0.7                      -1.97                    0.8981913930996056       -0.6461600627589166      5.2042662652331604E-6    1.497553481668785E-4     8.098374498338957E-5
-0.67                     -1.97                    0.9038639881323995       -0.6841464387262236      1.1906852686222804E-5    2.974857354114215E-4     1.544286040707272E-4
-0.64                     -1.97                    0.9110913089486536       -0.7179454351526728      2.5949894921072027E-5    6.387170802451929E-4     4.043657316984681E-4
-0.61                     -1.97                    0.9195873950964629       -0.7475976292918199      5.3670375697801224E-5    0.0012776006772273125    8.306364760277883E-4
-0.5800000000000001       -1.97                    0.9291086414525227       -0.7731574991270314      1.0592217507829597E-4    0.0023731284983742806    0.0015710231776038996
-0.55                     -1.97                    0.9394223913890865       -0.794694461658383       2.0076689799455462E-4    0.004127827054550304     0.0027454254813384545
-0.52                     -1.97                    0.9503218218731251       -0.8122902726518924      3.656433486387994E-4     0.007517072024583907     0.004842637831689659
-0.49                     -1.97                    0.9616028700556016       -0.8260356451885297      6.406735648185057E-4     0.011471500967454584     0.00912037450331571
-0.45999999999999996      -1.97                    0.9730918744885902       -0.8360241106461059      0.0010784972598644484    0.01814520449252131      0.014927789668047274
-0.43000000000000005      -1.97                    0.9846144073039486       -0.8423707962248883      0.0017505732814169785    0.027360692972743364     0.023120035292028975
-0.4                      -1.97                    0.9960079127413448       -0.8452037254261309      0.0027459990441215886    0.03964227510070555      0.03411567187120117
-0.37                     -1.97                    1.007127262517339        -0.8446633197532448      0.004164280137274213     0.05490979777613595      0.055137446495185885
-0.3400000000000001       -1.97                    1.017829956695542        -0.8408885287929333      0.006131218098930167     0.0753207021248362       0.07936256780059465
-0.31000000000000005      -1.97                    1.027992854158306        -0.8340382432106         0.008757822600022402     0.09972569216990401      0.10984801089670494
-0.28                     -1.97                    1.0374960379939044       -0.8242866041791008      0.012157898463660954     0.12811890029000383      0.14707374462616254
-0.25                     -1.97                    1.0462331434511993       -0.8118194915437031      0.0164164014387746       0.17033096630310315      0.19693701217030293
-0.21999999999999997      -1.97                    1.0541055659268974       -0.7968232498475595      0.021661492700296704     0.18868370479430896      0.2666550354001698
-0.19000000000000006      -1.97                    1.0610341343089018       -0.7794883852531783      0.027923955970454717     0.22379676139790228      0.3367622237238283
-0.16000000000000003      -1.97                    1.0669462890196473       -0.7600255447294665      0.03519095879824794      0.2592111418159388       0.4155417798088302
-0.13                     -1.97                    1.071780960840088        -0.7386515803621013      0.04340621251278337      0.2936819244550316       0.5014424410939632
-0.10000000000000009      -1.97                    1.075488957321222        -0.7155856031063924      0.05249816316204377      0.31244811882899687      0.6280291395097971
-0.07000000000000006      -1.97                    1.0780391129983695       -0.6910325864755478      0.06244957832174046      0.33904415432133617      0.784430177835381
-0.040000000000000036     -1.97                    1.0794071162206003       -0.6652097181904872      0.07302451923528093      0.3581436679525445       0.9319235226239608
-0.010000000000000009     -1.97                    1.0795709967128204       -0.638351140755707       0.08434036557076714      0.4043380939532609       1.044484587500072
0.020000000000000018      -1.97                    1.0785523177302518       -0.6106594351891872      0.09546740932093786      0.363811888452461        1.222006308733482
0.050000000000000044      -1.97                    1.0763584781686173       -0.5823434062702583      0.10703415270804116      0.3935762281003219       1.3081016326137198
0.08000000000000007       -1.97                    1.07300802607199         -0.5535900353354481      0.11839410387062886      0.3627992108834934       1.4772895202408312
0.10999999999999988       -1.97                    1.0685429791169074       -0.5246056634749424      0.12921468630801433      0.3608930444347646       1.6105295927599168
0.1399999999999999        -1.97                    1.0630038234661183       -0.4955635977375888      0.13961598296700467      0.3444572570423185       1.7672215533281639
0.16999999999999993       -1.97                    1.0564387301178935       -0.46663149013230865     0.14936005424331067      0.30514749471141683      1.9329880729901685
0.19999999999999996       -1.97                    1.0489087951634088       -0.437953710764743       0.15833003709920443      0.27978187511386665      2.079199480580822
0.22999999999999998       -1.97                    1.0404785880395087       -0.4096732313922666      0.16633507762483685      0.2511334765566077       2.222306607914014
0.26                      -1.97                    1.031217284164159        -0.3819162614284101      0.17330369201137602      0.21921924272558674      2.36165436229175
0.29000000000000004       -1.97                    1.021195301916063        -0.35479315558882596     0.17920859860824928      0.17269062924520576      2.4896217030045733
0.31999999999999984       -1.97                    1.0104864303568457       -0.32839103129219327     0.18407581568952225      0.140909274714909        2.6042512060015253
0.34999999999999987       -1.97                    0.9991646445082476       -0.30279130639514107     0.1878094243087647       0.10669636541892102      2.7111504865863894
0.3799999999999999        -1.97                    0.987305810686287        -0.27806205968563485     0.1904386658302803       0.07234621639812291      2.808005356306446
0.4099999999999999        -1.97                    0.9749851033929436       -0.2542564890193826      0.19201169323730732      0.03841180289914501      2.8936726293569137
0.43999999999999995       -1.97                    0.9622698397855686       -0.231412198376417       0.19263957036411058      0.0034466722210678203    2.9422625311939874
0.47                      -1.97                    0.94923278600309         -0.20955757194024371     0.1922914697032786       -0.025400989800058678    2.995449951480009
0.5                       -1.97                    0.9359392530271211       -0.18871318597925815     0.19106942345998681      -0.05253091280963231     3.0362560993562164
0.53                      -1.97                    0.9224536637719162       -0.1688883543324944      0.18906277902797902      -0.07763779349368986     3.06435163074984
0.56                      -1.97                    0.9088335667674131       -0.1500829231870665      0.18640026379135977      -0.09986322228092626     3.055365310175586
0.5899999999999999        -1.97                    0.8951360961791268       -0.13229001450227945     0.18307817215397626      -0.11847918330346852     3.054166665829625
0.6199999999999999        -1.97                    0.8814105601283295       -0.11549923547626328     0.17922301376168887      -0.13483476480137968     3.041973488500076
0.6499999999999999        -1.97                    0.8677052429270786       -0.09969248013234996     0.17492441501588338      -0.1488688110291777      3.019160438414055
0.6799999999999999        -1.97                    0.8540638247432417       -0.08484670605841008     0.1702662088144371       -0.16056210464169068     2.9862325529509106
0.71                      -1.97                    0.8405230513384043       -0.07093537101099283     0.16534322741701915      -0.16763665518617107     2.923251535090211
0.74                      -1.97                    0.827119575863644        -0.05793214270415886     0.16016514433909781      -0.17409498916028646     2.872393321456389
0.77                      -1.97                    0.8138838164099111       -0.04580565770171202     0.15483659255611446      -0.1787002773087106      2.814770394899896
0.7999999999999998        -1.97                    0.8008438326966733       -0.034522366013490756    0.1494178741669229       -0.18155188088139376     2.751121125765778
0.8299999999999998        -1.97                    0.7880231401467449       -0.024047579362313262    0.14397889366473204      -0.1810468192646612      2.6684962246757364
0.8599999999999999        -1.97                    0.7754434454352701       -0.014348794622781493    0.13851263277037704      -0.1804986728123836      2.5965749019518367
0.8899999999999999        -1.97                    0.7631216210145384       -0.005391302606389007    0.13309408784921412      -0.17879837721585085     2.5217071611265505
0.9199999999999999        -1.97                    0.7510731504170349       0.0028607791593221535    0.12775805341662688      -0.17606495396276506     2.4445405270854392
0.95                      -1.97                    0.7393105806799538       0.01044305480438389      0.12253705419547561      -0.17981040860536793     2.3614516722521213
0.98                      -1.97                    0.7278444565970501       0.017388955462551765     0.11744500377963771      -0.16678060544700993     2.2789688207227523
1.0099999999999998        -1.97                    0.7166823478444109       0.023730765617681008     0.11249563114834674      -0.16176223591276817     2.200790696437333
1.04                      -1.97                    0.7058302718253546       0.02950226884793514      0.10771488925085836      -0.15629405941798616     2.1229088502666604
1.0699999999999998        -1.97                    0.6952925997465701       0.034736232423703724     0.1031133930443381       -0.15046568269546284     2.0457331390283193
1.1                       -1.97                    0.685072395884785        0.03946381830707324      0.09870196946750527      -0.1436292224267224      1.965939966937227
1.13                      -1.97                    0.675170953393563        0.04371314213637568      0.09447092669561209      -0.13745602363986825     1.8931831318187278