% Model:              C2EQPeEpsMin1Eps002.mph
% Version:            COMSOL 5.6.0.280
% Date:               May 4 2021, 16:05
% Dimension:          2
% Nodes:              10201
% Expressions:        8
% Description:        Velocity field, x component, Velocity field, y component, Dependent variable u3, Gradient of u3, x component, Gradient of u3, y component, , , 
% Length unit:        m
% x                       y                        u (m/s)                  v (m/s)                  u3 (1)                   u3x (1/m)                u3y (1/m)                u5 (1)                   u5x (1/m)                u5y (1/m)
-1                        -2                       1                        1.110223024625057E-14    0                        9.072420619078454E-10    1.0072269461264549E-23   0                        0                        0
-0.97                     -2                       0.933491892466953        -0.13229143889485903     7.948362570002624E-11    5.253822782863008E-9     4.240538529784791E-9     0                        0                        0
-0.94                     -2                       0.9005087547318192       -0.2103812058631356      4.074703230070556E-10    1.9001762485104607E-8    1.841778510219948E-8     0                        0                        0
-0.91                     -2                       0.8778777411191776       -0.2790248084428373      1.5827316810034867E-9    7.12029384717629E-8      8.202171666172169E-8     0                        0                        0
-0.88                     -2                       0.86259708996782         -0.3428465220572063      5.60346429606371E-9      2.2617559866886727E-7    2.6028595242349095E-7    0                        0                        0
-0.85                     -2                       0.8530155555179675       -0.40244119699689823     1.798734179174339E-8     7.020107430806333E-7     9.199458656073051E-7     0                        0                        0
-0.8200000000000001       -2                       0.8480532049586749       -0.4582058154064361      5.477867136417628E-8     1.991427607732007E-6     2.5758375669023324E-6    0                        0                        0
-0.79                     -2                       0.8469332605043813       -0.5100955609149292      1.5470706726609118E-7    5.348435134721893E-6     7.830536382034357E-6     0                        0                        0
-0.76                     -2                       0.8490357621747058       -0.5581757792577373      4.173135884418462E-7     1.3682157207436622E-5    1.9771658888539558E-5    0                        0                        0
-0.73                     -2                       0.8538592610210194       -0.6023616505837981      1.0538875532375928E-6    3.232295999325379E-5     5.2872355151442826E-5    0                        0                        0
-0.7                      -2                       0.8609714425937377       -0.6426826250506398      2.549486038228413E-6     6.780338856240124E-5     1.2587130451039065E-4    0                        0                        0
-0.67                     -2                       0.8700012529044425       -0.6790852703751783      5.811957370063276E-6     1.577086744804442E-4     2.8940730122119435E-4    0                        0                        0
-0.64                     -2                       0.8806172387452164       -0.7116119410499623      1.2720710075499486E-5    3.031277397694302E-4     6.271073160747167E-4     0                        0                        0
-0.61                     -2                       0.8925232647972168       -0.7402468464138099      2.637664408859489E-5     6.303750585693437E-4     0.0013053577738654152    0                        0                        0
-0.5800000000000001       -2                       0.9054503237765855       -0.7650542268054024      5.26292672231052E-5      0.0011139819144795218    0.002590888988771638     0                        0                        0
-0.55                     -2                       0.9191505410947296       -0.7860528085094094      9.99510238433451E-5      0.0020919986976654383    0.004922253869720703     0                        0                        0
-0.52                     -2                       0.9333974732974754       -0.8033298279038563      1.8309856891646033E-4    0.003411782775228599     0.009002616995577807     0                        0                        0
-0.49                     -2                       0.9479772255012258       -0.8169351303048702      3.2063063901262604E-4    0.0058394270508095435    0.015731209562980204     0                        0                        0
-0.45999999999999996      -2                       0.9626949915449178       -0.826978599415695       5.429625457191723E-4     0.008825347714651398     0.02666919247247999      0                        0                        0
-0.43000000000000005      -2                       0.9773630849883984       -0.8335388326164866      8.825098550237177E-4     0.013886158555023663     0.04318527911518512      0                        0                        0
-0.4                      -2                       0.9918125446525068       -0.8367477676086084      0.0013908381433633246    0.01953582188728951      0.06826289911668787      0                        0                        0
-0.37                     -2                       1.005878119778569        -0.8367111208719084      0.0021120205321048364    0.02849025354657261      0.10318406184429235      0                        0                        0
-0.3400000000000001       -2                       1.0194142134855664       -0.8335819612209009      0.0031183211802196407    0.037486875970325115     0.1529768734604961       0                        0                        0
-0.31000000000000005      -2                       1.0322769350704408       -0.8274915870335663      0.004452593301202494     0.05106302367617903      0.21738067275774228      0                        0                        0
-0.28                     -2                       1.0443437993464981       -0.8186125284184371      0.006198733613160342     0.06314034815769345      0.30405160819169524      0                        0                        0
-0.25                     -2                       1.0554930230063795       -0.8070995680202503      0.008375127769714974     0.08091268749516721      0.408921050578433        0                        0                        0
-0.21999999999999997      -2                       1.0656263632211886       -0.7931418521529489      0.01106235717837069      0.09447157737327805      0.5427398499613629       0                        0                        0
-0.19000000000000006      -2                       1.0746459613480743       -0.7769144573019701      0.014228249682319        0.11464225067623865      0.6952603830908758       0                        0                        0
-0.16000000000000003      -2                       1.0824795551056126       -0.7586188251900231      0.017936485289975455     0.12692070195742874      0.8808629621399428       0                        0                        0
-0.13                     -2                       1.0890552885515723       -0.7384455902280378      0.022086407396907686     0.14579801626845537      1.0817304218179118       0                        0                        0
-0.10000000000000009      -2                       1.0943271794261042       -0.7166033421492909      0.026704505333131172     0.1636206589089841       1.302368595457218        0                        0                        0
-0.07000000000000006      -2                       1.098255102837287        -0.6932916365671997      0.031677204248327054     0.1683210708470226       1.5545713923212774       0                        0                        0
-0.040000000000000036     -2                       1.1008169701551407       -0.6687191440882362      0.036947846699142195     0.17458462994298085      1.8202481516793838       0                        0                        0
-0.010000000000000009     -2                       1.1020014737023545       -0.6430883448402163      0.04237945747375323      0.1827217331291067       2.0626442560401754       0                        0                        0
0.020000000000000018      -2                       NaN                      NaN                      NaN                      NaN                      NaN                      NaN                      NaN                      NaN
0.050000000000000044      -2                       NaN                      NaN                      NaN                      NaN                      NaN                      NaN                      NaN                      NaN
0.08000000000000007       -2                       NaN                      NaN                      NaN                      NaN                      NaN                      NaN                      NaN                      NaN
0.10999999999999988       -2                       NaN                      NaN                      NaN                      NaN                      NaN                      NaN                      NaN                      NaN
0.1399999999999999        -2                       NaN                      NaN                      NaN                      NaN                      NaN                      NaN                      NaN                      NaN
0.16999999999999993       -2                       NaN                      NaN                      NaN                      NaN                      NaN                      NaN                      NaN                      NaN
0.19999999999999996       -2                       NaN                      NaN                      NaN                      NaN                      NaN                      NaN                      NaN                      NaN
0.22999999999999998       -2                       NaN                      NaN                      NaN                      NaN                      NaN                      NaN                      NaN                      NaN
0.26                      -2                       NaN                      NaN                      NaN                      NaN                      NaN                      NaN                      NaN                      NaN
0.29000000000000004       -2                       NaN                      NaN                      NaN                      NaN                      NaN                      NaN                      NaN                      NaN
0.31999999999999984       -2                       NaN                      NaN                      NaN                      NaN                      NaN                      NaN                      NaN                      NaN
0.34999999999999987       -2                       NaN                      NaN                      NaN                      NaN                      NaN                      NaN                      NaN                      NaN
0.3799999999999999        -2                       NaN                      NaN                      NaN                      NaN                      NaN                      NaN                      NaN                      NaN
0.4099999999999999        -2                       NaN                      NaN                      NaN                      NaN                      NaN                      NaN                      NaN                      NaN
0.43999999999999995       -2                       NaN                      NaN                      NaN                      NaN                      NaN                      NaN                      NaN                      NaN
0.47                      -2                       NaN                      NaN                      NaN                      NaN                      NaN                      NaN                      NaN                      NaN
0.5                       -2                       NaN                      NaN                      NaN                      NaN                      NaN                      NaN                      NaN                      NaN
0.53                      -2                       NaN                      NaN                      NaN                      NaN                      NaN                      NaN                      NaN                      NaN
0.56                      -2                       NaN                      NaN                      NaN                      NaN                      NaN                      NaN                      NaN                      NaN
0.5899999999999999        -2                       NaN                      NaN                      NaN                      NaN                      NaN                      NaN                      NaN                      NaN
0.6199999999999999        -2                       NaN                      NaN                      NaN                      NaN                      NaN                      NaN                      NaN                      NaN
0.6499999999999999        -2                       NaN                      NaN                      NaN                      NaN                      NaN                      NaN                      NaN                      NaN
0.6799999999999999        -2                       NaN                      NaN                      NaN                      NaN                      NaN                      NaN                      NaN                      NaN
0.71                      -2                       NaN                      NaN                      NaN                      NaN                      NaN                      NaN                      NaN                      NaN
0.74                      -2                       NaN                      NaN                      NaN                      NaN                      NaN                      NaN                      NaN                      NaN
0.77                      -2                       NaN                      NaN                      NaN                      NaN                      NaN                      NaN                      NaN                      NaN
0.7999999999999998        -2                       NaN                      NaN                      NaN                      NaN                      NaN                      NaN                      NaN                      NaN
0.8299999999999998        -2                       NaN                      NaN                      NaN                      NaN                      NaN                      NaN                      NaN                      NaN
0.8599999999999999        -2                       NaN                      NaN                      NaN                      NaN                      NaN                      NaN                      NaN                      NaN
0.8899999999999999        -2                       NaN                      NaN                      NaN                      NaN                      NaN                      NaN                      NaN                      NaN
0.9199999999999999        -2                       NaN                      NaN                      NaN                      NaN                      NaN                      NaN                      NaN                      NaN
0.95                      -2                       NaN                      NaN                      NaN                      NaN                      NaN                      NaN                      NaN                      NaN
0.98                      -2                       NaN                      NaN                      NaN                      NaN                      NaN                      NaN                      NaN                      NaN
1.0099999999999998        -2                       NaN                      NaN                      NaN                      NaN                      NaN                      NaN                      NaN                      NaN
1.04                      -2                       NaN                      NaN                      NaN                      NaN                      NaN                      NaN                      NaN                      NaN
1.0699999999999998        -2                       NaN                      NaN                      NaN                      NaN                      NaN                      NaN                      NaN                      NaN
1.1                       -2                       NaN                      NaN                      NaN                      NaN                      NaN                      NaN                      NaN                      NaN
1.13                      -2                       NaN                      NaN                      NaN                      NaN                      NaN                      NaN                      NaN                      NaN
1.1600000000000001        -2                       NaN                      NaN                      NaN                      NaN                      NaN                      NaN                      NaN                      NaN
1.19                      -2                       NaN                      NaN                      NaN                      NaN                      NaN                      NaN                      NaN                      NaN
1.2199999999999998        -2                       NaN                      NaN                      NaN                      NaN                      NaN                      NaN                      NaN                      NaN
1.25                      -2                       NaN                      NaN                      NaN                      NaN                      NaN                      NaN                      NaN                      NaN
1.2799999999999998        -2                       NaN                      NaN                      NaN                      NaN                      NaN                      NaN                      NaN                      NaN
1.31                      -2                       NaN                      NaN                      NaN                      NaN                      NaN                      NaN                      NaN                      NaN
1.3399999999999999        -2                       NaN                      NaN                      NaN                      NaN                      NaN                      NaN                      NaN                      NaN
1.37                      -2                       NaN                      NaN                      NaN                      NaN                      NaN                      NaN                      NaN                      NaN
1.4                       -2                       NaN                      NaN                      NaN                      NaN                      NaN                      NaN                      NaN                      NaN
1.4299999999999997        -2                       NaN                      NaN                      NaN                      NaN                      NaN                      NaN                      NaN                      NaN
1.46                      -2                       NaN                      NaN                      NaN                      NaN                      NaN                      NaN                      NaN                      NaN
1.4899999999999998        -2                       NaN                      NaN                      NaN                      NaN                      NaN                      NaN                      NaN                      NaN
1.52                      -2                       NaN                      NaN                      NaN                      NaN                      NaN                      NaN                      NaN                      NaN
1.5499999999999998        -2                       NaN                      NaN                      NaN                      NaN                      NaN                      NaN                      NaN                      NaN
1.58                      -2                       NaN                      NaN                      NaN                      NaN                      NaN                      NaN                      NaN                      NaN
1.6099999999999999        -2                       NaN                      NaN                      NaN                      NaN                      NaN                      NaN                      NaN                      NaN
1.6399999999999997        -2                       NaN                      NaN                      NaN                      NaN                      NaN                      NaN                      NaN                      NaN
1.67                      -2                       NaN                      NaN                      NaN                      NaN                      NaN                      NaN                      NaN                      NaN
1.6999999999999997        -2                       NaN                      NaN                      NaN                      NaN                      NaN                      NaN                      NaN                      NaN
1.73                      -2                       NaN                      NaN                      NaN                      NaN                      NaN                      NaN                      NaN                      NaN
1.7599999999999998        -2                       NaN                      NaN                      NaN                      NaN                      NaN                      NaN                      NaN                      NaN
1.79                      -2                       NaN                      NaN                      NaN                      NaN                      NaN                      NaN                      NaN                      NaN
1.8199999999999998        -2                       NaN                      NaN                      NaN                      NaN                      NaN                      NaN                      NaN                      NaN
1.85                      -2                       NaN                      NaN                      NaN                      NaN                      NaN                      NaN                      NaN                      NaN
1.88                      -2                       NaN                      NaN                      NaN                      NaN                      NaN                      NaN                      NaN                      NaN
1.9099999999999997        -2                       NaN                      NaN                      NaN                      NaN                      NaN                      NaN                      NaN                      NaN
1.94                      -2                       NaN                      NaN                      NaN                      NaN                      NaN                      NaN                      NaN                      NaN
1.9699999999999998        -2                       NaN                      NaN                      NaN                      NaN                      NaN                      NaN                      NaN                      NaN
2                         -2                       NaN                      NaN                      NaN                      NaN                      NaN                      NaN                      NaN                      NaN
-1                        -1.97                    0.9999999999999999       -1.6792683516288848E-14  1.4152577528611737E-25   2.6752144217651908E-9    -4.067934867817749E-23   0                        0                        0
-0.97                     -1.97                    0.9842975997781896       -0.09358070091420322     1.9347926351973666E-10   1.1819894577004924E-8    3.873820329591106E-9     0                        0                        0
-0.94                     -1.97                    0.9558355347531304       -0.18206227996416094     9.63448628101799E-10     4.647860785432507E-8     1.7786009250506594E-8    0                        0                        0
-0.91                     -1.97                    0.9327135322440256       -0.2591949357397399      3.7161760350252684E-9    1.6307999264153357E-7    7.004937207644649E-8     0                        0                        0
-0.88                     -1.97                    0.9156796905872683       -0.32922055801353006     1.2925826838720394E-8    5.163062516751649E-7     2.2520451351515712E-7    0                        0                        0
-0.85                     -1.97                    0.9037965818923956       -0.39385163364265807     4.125526769660508E-8     1.578991021015853E-6     7.364021997183374E-7     0                        0                        0
-0.8200000000000001       -1.97                    0.8961720854634807       -0.4536940019492807      1.2390877831504145E-7    4.39887519506996E-6      2.07651663476529E-6      0                        0                        0
-0.79                     -1.97                    0.8921366175814213       -0.5090409109143383      3.4848632387608403E-7    1.185273954761016E-5     5.975321923012021E-6     0                        0                        0
-0.76                     -1.97                    0.8911320322168068       -0.5600025043978271      9.295714428600762E-7     2.9488691052101542E-5    1.5157981106835857E-5    0                        0                        0
-0.73                     -1.97                    0.8927091021556136       -0.6066536289280605      2.3396554991671804E-6    7.073956128452495E-5     3.886795443094833E-5     0                        0                        0
-0.7                      -1.97                    0.8964742099341825       -0.6490282753575563      5.6066123249293544E-6    1.5848121322088675E-4    8.93912288574216E-5      0                        0                        0
-0.67                     -1.97                    0.902090757382015        -0.6871706958431046      1.2742905546100352E-5    3.4128759020087246E-4    2.0588702786738454E-4    0                        0                        0
-0.64                     -1.97                    0.9092543983973171       -0.7211152723343454      2.7658300551345352E-5    6.931461661008057E-4     4.316441699372182E-4     0                        0                        0
-0.61                     -1.97                    0.91769452617523         -0.7509148816257825      5.718692948678728E-5     0.0013497806402182541    8.994268282510459E-4     0                        0                        0
-0.5800000000000001       -1.97                    0.9271622426690683       -0.7766215006241887      1.1324090957583515E-4    0.0025009064267186394    0.001728176411919744     0                        0                        0
-0.55                     -1.97                    0.937430262128157        -0.7983064304604881      2.1446924608421996E-4    0.00443429780526742      0.003281597229985963     0                        0                        0
-0.52                     -1.97                    0.9482878311000997       -0.8160434933906892      3.9014922964015494E-4    0.007542468700807116     0.005811889922432335     0                        0                        0
-0.49                     -1.97                    0.9595388470935589       -0.8299252819331816      6.814189736002463E-4     0.01225987147140971      0.010132955381882901     0                        0                        0
-0.45999999999999996      -1.97                    0.9710012499130986       -0.840048711249422       0.001146605888833376     0.019265555521476248     0.01664369683984067      0                        0                        0
-0.43000000000000005      -1.97                    0.9825035066764033       -0.846528775731082       0.0018592760349280112    0.028903840031330997     0.026850716178434906     0                        0                        0
-0.4                      -1.97                    0.9938872191631427       -0.8494859833439315      0.0029136617021834404    0.042230994034651706     0.04117049606936672      0                        0                        0
-0.37                     -1.97                    1.0050021765116353       -0.8490581624016759      0.004416004617701663     0.05887815917341947      0.06194404153956394      0                        0                        0
-0.3400000000000001       -1.97                    1.0157114272410417       -0.8453894005886916      0.006488595699824111     0.08049462709796744      0.08926730298384314      0                        0                        0
-0.31000000000000005      -1.97                    1.0258850802307127       -0.8386400268968824      0.009252895143257864     0.10498820929439844      0.12624779989422366      0                        0                        0
-0.28                     -1.97                    1.0354072970980788       -0.8289768245947357      0.012831888824611549     0.1351373851921217       0.17217401877534083      0                        0                        0
-0.25                     -1.97                    1.0441690003899584       -0.8165811074832114      0.01732809885661337      0.1659601518601743       0.23064225289028242      0                        0                        0
-0.21999999999999997      -1.97                    1.0520762973528852       -0.8016401267585482      0.022825192011464678     0.2023176413256983       0.2996739994920214       0                        0                        0