% Model:              C2EQPeEpsMin1Eps002.mph
% Version:            COMSOL 5.6.0.280
% Date:               May 4 2021, 16:17
% Dimension:          2
% Nodes:              4001
% Expressions:        10
% Description:        Velocity field, x component, Velocity field, y component, Dependent variable u3, Gradient of u3, x component, Gradient of u3, y component, , , , , 
% Length unit:        m
% x                       y                        u (m/s)                  v (m/s)                  u3 (1)                   u3x (1/m)                u3y (1/m)                -u*u3+0.02*u3x           u5 (1)                   u5x (1/m)                u5y (1/m)                -u*u5+0.02*u5x
-1                        -0.5                     1                        0                        1                        -4.3736717714182305E-7   0                        -1.0000000087473435      0                        0                        0                        0
-0.999                    -0.5                     0.999996562309391        5.332214387646253E-7     0.9999999995457651       -4.7111201200687656E-7   -9.396696329767546E-12   -0.9999965712773979      0                        0                        0                        0
-0.998                    -0.5                     0.9999870369081214       1.0649405193713768E-6    0.9999999990577759       -5.048661352918381E-7    -3.682123636168843E-12   -0.9999870460632323      0                        0                        0                        0
-0.997                    -0.5                     0.9999714237961911       1.5951572418259247E-6    0.9999999985360329       -5.386202372605176E-7    2.0431071982950004E-12   -0.9999714331046706      0                        0                        0                        0
-0.996                    -0.5                     0.9999497229735999       2.123871606128327E-6     0.9999999979805355       -5.723743800854044E-7    7.729258182420483E-12    -0.9999497324017246      0                        0                        0                        0
-0.995                    -0.5                     0.9999219344403476       2.6510836122785355E-6    0.999999997391284        -6.061284962649386E-7    1.3461594444284743E-11   -0.9999219439544051      0                        0                        0                        0
-0.994                    -0.5                     0.9998880581964353       3.176793260276551E-6     0.9999999967682784       -6.398826142208296E-7    1.917794349468003E-11    -0.9998880677627278      0                        0                        0                        0
-0.993                    -0.5                     0.9998480942418617       3.7010005501224275E-6    0.9999999961115189       -6.73636724183115E-7     2.4868535370754162E-11   -0.9998481038267057      0                        0                        0                        0
-0.992                    -0.5                     0.9998020425766275       4.22370548181607E-6      0.999999995421005        -7.073908657312452E-7    3.0580443529105804E-11   -0.9998020521463564      0                        0                        0                        0
-0.991                    -0.5                     0.9997499032007326       4.744908055357587E-6     0.9999999946967373       -7.411449796348223E-7    3.631277979097943E-11    -0.9997499127216959      0                        0                        0                        0
-0.99                     -0.5                     0.9996916761141769       5.264608270746884E-6     0.9999999939387151       -7.748991038079622E-7    4.2025576127674515E-11   -0.9996916855527429      0                        0                        0                        0
-0.989                    -0.5                     0.9996273613169601       5.782806127984014E-6     0.9999999931469388       -8.086532146584259E-7    4.773837246436959E-11    -0.9996273706395169      0                        0                        0                        0
-0.988                    -0.5                     0.999556958809083        6.299501627068965E-6     0.9999999923214086       -8.424073468251717E-7    5.345649787147583E-11    -0.9995569679820405      0                        0                        0                        0
-0.987                    -0.5                     0.9994804685905451       6.814694768001723E-6     0.9999999914621244       -8.761614558992785E-7    5.914975428295892E-11    -0.9994804775803342      0                        0                        0                        0
-0.986                    -0.5                     0.9993978906613464       7.328385550782348E-6     0.9999999905690861       -9.099155791842401E-7    6.487853783118719E-11    -0.9993978994344226      0                        0                        0                        0
-0.985                    -0.5                     0.9993092250214868       7.840573975410828E-6     0.9999999896422932       -9.436697131273427E-7    7.057889966989944E-11    -0.9993092335443291      0                        0                        0                        0
-0.984                    -0.5                     0.9992144716709661       8.351260041886975E-6     0.9999999886817462       -9.774238008851673E-7    7.629347236358376E-11    -0.9992144799100792      0                        0                        0                        0
-0.983                    -0.5                     0.9991137245010308       8.860475949519256E-6     0.9999999876889122       -1.0149809530761987E-6   8.371658305333144E-11    -0.9991137325004731      0                        0                        0                        0
-0.982                    -0.5                     0.9990071640889785       9.368309911910343E-6     0.9999999866494396       -1.0639638315753015E-6   9.168820965405258E-11    -0.9990071720309497      0                        0                        0                        0
-0.981                    -0.5                     0.9988947940196325       9.874766833759927E-6     0.9999999855609842       -1.1129467065216908E-6   9.965983625485935E-11    -0.998894801855509       0                        0                        0                        0
-0.98                     -0.5                     0.9987766142929924       1.0379846715068048E-5    0.9999999844235461       -1.1619295885735072E-6   1.0761014657363614E-10   -0.9987766219741862      0                        0                        0                        0
-0.979                    -0.5                     0.9986526249090583       1.0883549555834622E-5    0.9999999832371254       -1.2109124795071078E-6   1.1558177317444292E-10   -0.9986526323870192      0                        0                        0                        0
-0.978                    -0.5                     0.9985228258678297       1.1385875356059678E-5    0.9999999820017211       -1.259895342018999E-6    1.2353918892051307E-10   -0.9985228330940443      0                        0                        0                        0
-0.977                    -0.5                     0.9983872171693073       1.1886824115743122E-5    0.9999999807173345       -1.3088782347289567E-6   1.3151259187815926E-10   -0.9983872240953053      0                        0                        0                        0
-0.976                    -0.5                     0.9982457988134907       1.2386395834885211E-5    0.9999999793839649       -1.3578611125619256E-6   1.3946334628610842E-10   -0.9982458053908425      0                        0                        0                        0
-0.975                    -0.5                     0.9980985708003797       1.288459051348578E-5     0.9999999780016123       -1.4068439939476082E-6   1.4742964381632742E-10   -0.9980985769807003      0                        0                        0                        0
-0.974                    -0.5                     0.9979455331299744       1.338140815154471E-5     0.9999999765702766       -1.4558268755553354E-6   1.5541681353954317E-10   -0.9979455388649241      0                        0                        0                        0
-0.973                    -0.5                     0.9977866858022756       1.3876848749062378E-5    0.9999999750899585       -1.504809746949011E-6    1.6340442735184032E-10   -0.9977866910435629      0                        0                        0                        0
-0.972                    -0.5                     0.9976220288172823       1.4370912306038312E-5    0.9999999735606572       -1.5537926307771843E-6   1.7136539581161068E-10   -0.9976220335166642      0                        0                        0                        0
-0.971                    -0.5                     0.9974515621749955       1.486359882247289E-5     0.9999999719823733       -1.602775509276287E-6    1.7929438984818622E-10   -0.9974515662842802      0                        0                        0                        0
-0.97                     -0.5                     0.9972752858754136       1.5354908298365875E-5    0.9999999703551062       -1.651758377117249E-6    1.872411474532842E-10    -0.9972752893464611      0                        0                        0                        0
-0.969                    -0.5                     0.9970931999185381       1.5844840733717348E-5    0.9999999686788563       -1.7007412556163517E-6   1.9524119576352138E-10   -0.9970932027032637      0                        0                        0                        0
-0.968                    -0.5                     0.9969053043043684       1.633339612852735E-5     0.9999999669536238       -1.7497241518790228E-6   2.0319150608216972E-10   -0.9969053063547438      0                        0                        0                        0
-0.967                    -0.5                     0.9967116580812234       1.6820572829896677E-5    0.9999999652048458       -1.7584427987495081E-6   1.9567132171873541E-10   -0.9967116585693435      0                        0                        0                        0
-0.966                    -0.5                     0.9965124661694211       1.7306430292121758E-5    0.9999999634029063       -1.845435875956135E-6    2.1728015056151423E-10   -0.9965124666086785      0                        0                        0                        0
-0.965                    -0.5                     0.9963077390044317       1.7790989416596268E-5    0.999999961513974        -1.932428867897634E-6    2.388818739774768E-10    -0.9963077393090835      0                        0                        0                        0
-0.964                    -0.5                     0.996097476586255        1.8274250203320032E-5    0.999999959538049        -2.019421937998834E-6    2.6052978267099306E-10   -0.9960974766706464      0                        0                        0                        0
-0.963                    -0.5                     0.9958816789148907       1.875621265229314E-5     0.9999999574751302       -2.1064149477039013E-6   2.8210308437725457E-10   -0.9958816786934508      0                        0                        0                        0
-0.962                    -0.5                     0.9956603459903395       1.9236876763515603E-5    0.9999999553252188       -2.1934080035942465E-6   3.03754545784179E-10     -0.9956603453775915      0                        0                        0                        0
-0.961                    -0.5                     0.9954334778126012       1.971624253698719E-5     0.9999999530883142       -2.2804010363919524E-6   3.2536692734117796E-10   -0.9954334767231594      0                        0                        0                        0
-0.96                     -0.5                     0.9952010743816754       2.0194309972708312E-5    0.9999999507644168       -2.3673940736305508E-6   3.469606571512617E-10    -0.9952010727302516      0                        0                        0                        0
-0.959                    -0.5                     0.9949631356975623       2.0671079070678857E-5    0.999999948353526        -2.454387118418666E-6    3.6857570324260627E-10   -0.9949631333989669      0                        0                        0                        0
-0.958                    -0.5                     0.994719661760262        2.1146549830898446E-5    0.9999999458556423       -2.5413801623186023E-6   3.9018986115637696E-10   -0.9947196587294082      0                        0                        0                        0
-0.957                    -0.5                     0.9944706525697746       2.1620722253367363E-5    0.9999999432707657       -2.628373213768055E-6    4.1181290085508895E-10   -0.9944706487216802      0                        0                        0                        0
-0.956                    -0.5                     0.9942161081260997       2.2093596338085988E-5    0.9999999405988961       -2.715366251894832E-6    4.334110715564254E-10    -0.9942161033758905      0                        0                        0                        0
-0.955                    -0.5                     0.9939560284292376       2.2565172085053928E-5    0.9999999378400333       -2.802359291797966E-6    4.5503411125364876E-10   -0.9939560226921497      0                        0                        0                        0
-0.954                    -0.5                     0.9936904134791883       2.3035449494271023E-5    0.9999999349941774       -2.8893523334774564E-6   4.766429400969689E-10    -0.9936904066705723      0                        0                        0                        0
-0.953                    -0.5                     0.9934192632759519       2.3504428565737268E-5    0.9999999320613285       -2.9763453573933785E-6   4.982517689392064E-10    -0.9934192553112741      0                        0                        0                        0
-0.952                    -0.5                     0.9931425778195279       2.3972109299452857E-5    0.9999999290414866       -3.0633384203891506E-6   5.198748086377831E-10    -0.9931425686143753      0                        0                        0                        0
-0.951                    -0.5                     0.9928603713531802       2.4438494451952105E-5    0.9999999259373593       -3.1433821224258907E-6   5.431484083321856E-10    -0.9928603606869617      0                        0                        0                        0
-0.95                     -0.5                     0.9925728280324311       2.4903656492174708E-5    0.9999999227379534       -3.255429969341314E-6    5.710728422169135E-10    -0.9925728164528224      0                        0                        0                        0
-0.949                    -0.5                     0.9922800005491597       2.536762706294677E-5     0.9999999194264994       -3.36747780915131E-6     5.989759598184858E-10    -0.9922799879472426      0                        0                        0                        0
-0.948                    -0.5                     0.9919818889033665       2.583040616426793E-5     0.9999999160029978       -3.479525631197738E-6    6.269074991284058E-10    -0.9919818751703741      0                        0                        0                        0
-0.947                    -0.5                     0.991678493095051        2.6291993796138298E-5    0.9999999124674482       -3.591573485218589E-6    6.548248275846932E-10    -0.9916784781223716      0                        0                        0                        0
-0.946                    -0.5                     0.991369813124213        2.675238995855774E-5     0.9999999088198507       -3.7036213108177303E-6   6.827279451862656E-10    -0.9913697968033917      0                        0                        0                        0
-0.945                    -0.5                     0.9910558489908535       2.7211594651525914E-5    0.9999999050602055       -3.8156691524040835E-6   7.106736953519836E-10    -0.991055831213598       0                        0                        0                        0
-0.944                    -0.5                     0.9907366006949716       2.766960787504318E-5     0.9999999011885126       -3.927716992658169E-6    7.385910238083387E-10    -0.9907365813531542      0                        0                        0                        0
-0.943                    -0.5                     0.9904120682365675       2.8126429629109593E-5    0.9999998972047714       -4.039764819145488E-6    7.664940303875832E-10    -0.9904120472222289      0                        0                        0                        0
-0.942                    -0.5                     0.9900822516156417       2.8582059913724957E-5    0.9999998931089826       -4.151812670945893E-6    7.944114698666047E-10    -0.990082228820996       0                        0                        0                        0
-0.941                    -0.5                     0.9897471508321936       2.9036498728889605E-5    0.9999998889011464       -4.263860495656856E-6    8.223430091776751E-10    -0.9897471261496298      0                        0                        0                        0
-0.94                     -0.5                     0.9894067658862233       2.9489746074603076E-5    0.9999998845812621       -4.375908330137781E-6    8.502390213518898E-10    -0.9894067392083098      0                        0                        0                        0
-0.9390000000000001       -0.5                     0.9890610967777311       2.9941801950865795E-5    0.9999998801493296       -4.487956169947745E-6    8.781989824242978E-10    -0.9890610679972189      0                        0                        0                        0
-0.938                    -0.5                     0.9887101435067166       3.0392666357677526E-5    0.9999998756053494       -4.600004007981416E-6    9.060985472602165E-10    -0.9887101125165438      0                        0                        0                        0
-0.937                    -0.5                     0.98835390607318         3.0842339295038395E-5    0.9999998709493216       -4.712051826475099E-6    9.340407447642305E-10    -0.9883538727664745      0                        0                        0                        0
-0.9359999999999999       -0.5                     0.9879923844771215       3.1290820762948234E-5    0.9999998661812459       -4.824099652074272E-6    9.619225460317552E-10    -0.9879923487472045      0                        0                        0                        0
-0.935                    -0.5                     0.9876255795281524       3.1738110407784376E-5    0.9999998613033373       -4.818094074120931E-6    9.363786712480947E-10    -0.987625538909662       0                        0                        0                        0
-0.9339999999999999       -0.5                     0.9872536633711445       3.218422395779363E-5     0.9999998563906337       -5.007312904052778E-6    1.0019684497485866E-9    -0.9872536217385296      0                        0                        0                        0
-0.933                    -0.5                     0.9868767189843671       3.262921275831441E-5     0.9999998512887114       -5.196531780169692E-6    1.0675937557301028E-9    -0.9868766761552942      0                        0                        0                        0
-0.9319999999999999       -0.5                     0.9864947463678195       3.307307680934676E-5     0.9999998459975703       -5.385750645628677E-6    1.1331764288005617E-9    -0.9864947021602446      0                        0                        0                        0
-0.931                    -0.5                     0.9861077455215022       3.351581611089043E-5     0.9999998405172102       -5.574969551943656E-6    1.1987662076470732E-9    -0.986107699753679       0                        0                        0                        0
-0.9299999999999999       -0.5                     0.9857157164454148       3.395743066294601E-5     0.999999834847631        -5.7641884014154286E-6   1.2643879605688908E-9    -0.985715668935897       0                        0                        0                        0
-0.929                    -0.5                     0.9853186591395576       3.439792046551297E-5     0.9999998289888333       -5.953407276644164E-6    1.329977739412727E-9     -0.9853186097072097      0                        0                        0                        0
-0.9279999999999999       -0.5                     0.9849165736039305       3.4837285518591516E-5    0.9999998229408167       -6.142626159866716E-6    1.395591498730105E-9     -0.9849165220679295      0                        0                        0                        0
-0.927                    -0.5                     0.984509459838534        3.5275525822181624E-5    0.9999998167035811       -6.331845000234448E-6    1.4611611825376135E-9    -0.9845094060183756      0                        0                        0                        0
-0.926                    -0.5                     0.9840973178433671       3.571264137628311E-5     0.9999998102771264       -6.521063885455297E-6    1.5267737207811415E-9    -0.9840972615588737      0                        0                        0                        0
-0.925                    -0.5                     0.9836801476184306       3.614863218089632E-5     0.9999998036614532       -6.710282749137818E-6    1.592386592091549E-9     -0.983680088689755       0                        0                        0                        0
-0.924                    -0.5                     0.9832579491637241       3.658349823602125E-5     0.9999997968565609       -6.899501597721307E-6    1.6579905816175365E-9    -0.9832578874113548      0                        0                        0                        0
-0.923                    -0.5                     0.9828307224792481       3.701723954165718E-5     0.9999997898624501       -7.088720484496466E-6    1.7235981238603241E-9    -0.9828306577240177      0                        0                        0                        0
-0.922                    -0.5                     0.9823984675650017       3.744985609780461E-5     0.99999978267912         -7.277939367718911E-6    1.7891879025347178E-9    -0.9823983996280896      0                        0                        0                        0
-0.921                    -0.5                     0.9819611844209858       3.788134790446443E-5     0.9999997753065715       -7.467158226072364E-6    1.8547847866302264E-9    -0.9819611131239251      0                        0                        0                        0
-0.92                     -0.5                     0.9815188730471998       3.8311714961634756E-5    0.9999997677448038       -7.656377095083955E-6    1.920388776160227E-9     -0.9815187982118833      0                        0                        0                        0
-0.919                    -0.5                     0.9810715334436441       3.8740957269317706E-5    0.9999997599938171       -7.845595974753687E-6    1.9859927656866603E-9    -0.9810714548923296      0                        0                        0                        0
-0.918                    -0.5                     0.9806192472804113       3.916910007535472E-5     0.9999997520599228       -8.04025480775137E-6     2.062987653844825E-9     -0.9806191649506955      0                        0                        0                        0
-0.917                    -0.5                     0.9801621569462807       3.9596205801758676E-5    0.9999997439074703       -8.264650577608445E-6    2.143357918412501E-9     -0.9801620712270859      0                        0                        0                        0
-0.916                    -0.5                     0.9797002640822906       4.0022277308399656E-5    0.9999997355306217       -8.489046354570952E-6    2.223713972121895E-9     -0.9797001747624979      0                        0                        0                        0
-0.915                    -0.5                     0.9792335686884415       4.044731459527838E-5     0.9999997269293778       -8.713442135086173E-6    2.304080683970541E-9     -0.9792334755573643      0                        0                        0                        0
-0.914                    -0.5                     0.9787620707647328       4.087131766239379E-5     0.9999997181037376       -8.937837920930462E-6    2.3844438431099677E-9    -0.9787619736121216      0                        0                        0                        0
-0.913                    -0.5                     0.978285770311165        4.12942865097465E-5      0.9999997090537017       -9.162233710327464E-6    2.4647927913924493E-9    -0.9782856689272157      0                        0                        0                        0
-0.912                    -0.5                     0.977804667327738        4.17162211373366E-5      0.9999996997792701       -9.38662948728997E-6     2.5451648323133977E-9    -0.9778045615030967      0                        0                        0                        0
-0.911                    -0.5                     0.9773187618144519       4.2137121545163596E-5    0.9999996902804428       -9.611025263586343E-6    2.625514224685089E-9     -0.977318651340223       0                        0                        0                        0
-0.91                     -0.5                     0.9768280537713065       4.25569877332277E-5      0.9999996805572196       -9.835421065195799E-6    2.705913355049622E-9     -0.9768279384390584      0                        0                        0                        0
-0.909                    -0.5                     0.9763325431983019       4.297581970152926E-5     0.9999996706096006       -1.00598168341647E-5     2.7862418752284506E-9    -0.9763324228000723      0                        0                        0                        0
-0.908                    -0.5                     0.975832230095438        4.33936174500681E-5      0.999999660437586        -1.0284212621785345E-5   2.86659792893829E-9      -0.9758321044237427      0                        0                        0                        0
-0.907                    -0.5                     0.9753271144627147       4.38103809788439E-5      0.9999996500411754       -1.050860840407692E-5    2.946939771794752E-9     -0.9753269833105522      0                        0                        0                        0
-0.906                    -0.5                     0.9748171963001323       4.4226110287856816E-5    0.999999639420369        -1.0733004149065003E-5   3.02734201078197E-9      -0.9748170594609903      0                        0                        0                        0
-0.905                    -0.5                     0.9743024756076906       4.464080537710679E-5     0.9999996285751671       -1.095739996510736E-5    3.1077300389153645E-9    -0.9743023328755557      0                        0                        0                        0
-0.904                    -0.5                     0.9737829523853898       4.505446624659423E-5     0.9999996175055693       -1.1181795784702429E-5   3.1880576709171117E-9    -0.9737828035547496      0                        0                        0                        0
-0.903                    -0.5                     0.9732586266332297       4.54670928963187E-5      0.9999996062115756       -1.140619155811222E-5    3.2683924083444322E-9    -0.9732584714990797      0                        0                        0                        0
-0.902                    -0.5                     0.9727295506893079       4.587868455966256E-5     0.9999995947846602       -1.1493968631598836E-5   3.2835550872517896E-9    -0.9727293864037451      0                        0                        0                        0
-0.901                    -0.5                     0.9721959021254579       4.628928392120324E-5     0.9999995831091038       -1.185714471843173E-5    3.4523244952253217E-9    -0.9721957339687313      0                        0                        0                        0
-0.9                      -0.5                     0.9716576907190931       4.6698904827433356E-5    0.999999571070371        -1.2220320719999495E-5   3.6209802163704156E-9    -0.9716575183527347      0                        0                        0                        0
-0.899                    -0.5                     0.9711149164702138       4.710754727835296E-5     0.999999558668462        -1.2583496781963392E-5   3.789767387916983E-9     -0.9711147395565097      0                        0                        0                        0
-0.898                    -0.5                     0.9705675793788195       4.7515211273962146E-5    0.9999995459033774       -1.2946672806623795E-5   3.9584408726235086E-9    -0.9705673975808158      0                        0                        0                        0
-0.897                    -0.5                     0.9700156794449105       4.792189681426065E-5     0.9999995327751166       -1.3309848857929549E-5   4.1271836352502515E-9    -0.9700154924264248      0                        0                        0                        0
-0.896                    -0.5                     0.9694592166684869       4.832760389924855E-5     0.9999995192836796       -1.367302489502445E-5    4.295901528881244E-9     -0.9694590240941173      0                        0                        0                        0