% Model:              C2EQPeEpsMin1Eps002.mph
% Version:            COMSOL 5.6.0.280
% Date:               Sep 23 2021, 14:25
% Dimension:          2
% Nodes:              3001
% Expressions:        8
% Description:        Velocity field, x component, Velocity field, y component, Dependent variable u3, Gradient of u3, x component, Gradient of u3, y component, , , 
% Length unit:        m
% x                       y                        u (m/s)                  v (m/s)                  u3 (1)                   u3x (1/m)                u3y (1/m)                u5 (1)                   u5x (1/m)                u5y (1/m)
0                         -2                       1.1021510274199184       -0.6350317430225467      0.043304943451609186     0.1816538895465753       1.9997171864642673       0.04473484772564834      0.18546641095818808      2.2367315951446733
0                         -1.999                   1.1012768009067886       -0.6350330027852182      0.04529060521836865      0.19027425414222643      1.9716063470540206       0.04694156701861061      0.1946454755697686       2.177104213739322
0                         -1.998                   1.100406724646174        -0.6350333526802924      0.04724815614571744      0.1987751286923685       1.9434955076437797       0.04908983644476272      0.20363847965623533      2.119817796524257
0                         -1.997                   1.0995407986380743       -0.6350327927077694      0.049177596233655974     0.20715649927304067      1.9153846682335414       0.05118195521692021      0.2124492651494288       2.064789282516586
0                         -1.996                   1.098679022882489        -0.635031322867649       0.051078925482184664     0.21541835195766332      1.887273828823295        0.053220140802916996     0.22108165762381918      2.011938233434827
0                         -1.995                   1.0978213973794189       -0.6350289431599312      0.0529521438913027       0.22356067281780082      1.8591629894130552       0.05520653152040108      0.22953946290693594      1.9611867778890328
0                         -1.994                   1.0969679221288637       -0.6350256535846163      0.0547972514610109       0.23158344792261493      1.8310521500028105       0.05714318907582361      0.23782646383174627      1.9124595555707533
0                         -1.993                   1.0961185971308234       -0.635021454141704       0.05661424819130845      0.23948666333926533      1.8029413105925716       0.05903210104761227      0.24594641713006835      1.8656836614431929
0                         -1.992                   1.0952734223852978       -0.6350163448311944      0.058403134082195746     0.24727030513278472      1.774830471182332        0.060875183313540956     0.2539030504761908       1.8207885899312057
0                         -1.991                   1.0944323978922874       -0.6350103256530875      0.0601639091336728       0.2549343593657418       1.7467196317720937       0.0626742824222846       0.26170005966926685      1.7777061791113347
0                         -1.99                    1.0935955236517916       -0.6350033966073833      0.061896573345740176     0.26247881209899226      1.7186087923618452       0.06443117790916701      0.26934110596337685      1.7363705549019297
0                         -1.989                   1.0927627996638107       -0.6349955576940818      0.06360112671839674      0.2699036493909498       1.6904979529516067       0.06614758455609539      0.2768298135406256       1.6967180752531936
0                         -1.988                   1.0919342259283449       -0.634986808913183       0.06527756925164306      0.27720885729776845      1.6623871135413684       0.06782515459569052      0.28416976712680236      1.6586872743371959
0                         -1.987                   1.0911098024453938       -0.634977150264687       0.06692590094547912      0.28439442187358793      1.6342762741311294       0.06946547985960165      0.29136450975516426      1.622218806737968
0                         -1.986                   1.0902895292149575       -0.6349665817485937      0.06854612179990531      0.29146032917054104      1.6061654347208847       0.07107009387101414      0.2984175406723663       1.5872553916415366
0                         -1.985                   1.0894734062370361       -0.6349551033649029      0.07013823181492124      0.29840656523822945      1.5780545953106404       0.07264047388134558      0.30533231338766514      1.5537417570260228
0                         -1.984                   1.0886614335116294       -0.6349427151136149      0.07170223099052693      0.3052331161243567       1.549943755900396        0.07417804285113387      0.3121122338694693       1.521624583851646
0                         -1.983                   1.087853611038738        -0.6349294169947297      0.07323811932672201      0.3119399678742722       1.5218329164901574       0.07568417137511378      0.3187606588846792       1.490852450250842
0                         -1.982                   1.0870499388183612       -0.6349152090082472      0.07474589682350719      0.3185271065313671       1.4937220770799136       0.07716017955148544      0.325280894481408        1.461375775718247
0                         -1.981                   1.0862504168504996       -0.6349000911541673      0.0762255634808818       0.32499451813663044      1.4656112376696762       0.07860733879536926      0.3316761946201568       1.4331467653008243
0                         -1.98                    1.0854550451351528       -0.6348840634324903      0.07767711929884633      0.33134218872904253      1.4375003982594343       0.08002687359645577      0.33794975994487475      1.406119353787866
0                         -1.979                   1.0846638236723203       -0.6348671258432156      0.07910056427740074      0.3375701043454109       1.4093895588491918       0.08141996322084134      0.34410473670228336      1.3802491499011178
0                         -1.978                   1.0838767524620032       -0.634849278386344       0.08049589841654478      0.34367825102022487      1.3812787194389506       0.08278774335705585      0.3501442158047379       1.3554933804847573
0                         -1.977                   1.083093831504201        -0.634830521061875       0.0818631217162787       0.3496666147860649       1.3531678800287068       0.08413130770628104      0.3560712320363885       1.3318108346955022
0                         -1.976                   1.0823150607989134       -0.6348108538698084      0.08320223417660239      0.3555351816729978       1.325057040618464        0.08545170951675704      0.3618887634069165       1.3091618081926695
0                         -1.975                   1.0815404403461413       -0.634790276810145       0.08451323579751539      0.3612839377092484       1.2969462012082298       0.08674996306238021      0.36759973064826384      1.2875080473282035
0                         -1.974                   1.0807699701458833       -0.634768789882884       0.08579612657901886      0.3669128689206828       1.2688353617979802       0.08802704506549257      0.37320699685570907      1.2668126933367532
0                         -1.973                   1.0800036501981405       -0.6347463930880257      0.08705090652111153      0.3724219613309685       1.2407245223877428       0.08928389606385553      0.378713367276436        1.2470402265257443
0                         -1.972                   1.079241480502913        -0.6347230864255703      0.0882775756237941       0.3778112009616837       1.212613682977503        0.09052142172182229      0.3841215892391278       1.2281564104653975
0                         -1.971                   1.0784834610601997       -0.6346988698955174      0.08947613388706652      0.3830805738322266       1.1845028435672607       0.09174049408569267      0.3894343522332961       1.2101282361788084
0                         -1.97                    1.0777295918700012       -0.6346737434978672      0.0906465813109289       0.38823006595987253      1.1563920041570124       0.09294195278326199      0.3946542881295383       1.192923866332022
0                         -1.969                   1.0769798729323181       -0.6346477072326199      0.09178891789538066      0.3932596633595601       1.1282811647467745       0.09412660616755841      0.39978397154625844      1.1765125794240634
0                         -1.968                   1.0762343042471492       -0.6346207610997749      0.09290314364042246      0.39816935204419646      1.100170325336529        0.09529523240477254      0.4048259203620021       1.1608647139769883
0                         -1.967                   1.075492885814496        -0.6345929050993331      0.09398925854605361      0.4029591180244562       1.0720594859262944       0.09644858050637316      0.4097825963737737       1.145951612726006
0                         -1.966                   1.0747556176343573       -0.6345641392312937      0.09504726261227484      0.40762894730876476      1.0439486465160526       0.09758737130541809      0.4146564060980389       1.1317455668094325
0                         -1.965                   1.0740224997067336       -0.6345344634956572      0.09607715583908574      0.4121788259036275       1.015837807105812        0.09871229837704976      0.41944970171764695      1.118219759958831
0                         -1.964                   1.0732935320316246       -0.6345038778924231      0.09707893822648637      0.4166087398130924       0.9877269676955713       0.0998240289031851       0.42416478217744236      1.1053482126890533
0                         -1.963                   1.0725687146090306       -0.634472382421592       0.09805260977447691      0.42091867503904246      0.9596161282853272       0.1009232044813935       0.4288038944191482       1.0931057264882578
0                         -1.962                   1.0718480474389513       -0.6344399770831635      0.09899817048305729      0.4251086175813686       0.9315052888750804       0.10201044187796482      0.4333692347662234       1.081467828008009
0                         -1.961                   1.0711315305213873       -0.6344066618771377      0.09991562035222709      0.4291785534377816       0.9033944494648434       0.10308633372516761      0.4378629504536238       1.070410713253341
0                         -1.96                    1.0704191358012325       -0.6343724338871662      0.10081062423759499      0.43314149044081685      0.9978757653093258       0.10415144953754782      0.44228713922154095      1.0599196072437829
0                         -1.959                   1.0697099147745064       -0.6343372150493007      0.10180692180467953      0.43729286668675094      0.9947193688602957       0.10520635131455787      0.4466437736335315       1.0499720503839807
0                         -1.958                   1.0690040788308635       -0.634301046049279       0.10280006297531548      0.44140277307296205      0.9915629724112645       0.10625156655895586      0.4509348493228196       1.040543277294896
0                         -1.957                   1.0683016279703041       -0.6342639268871005      0.103790047749502        0.4454714500658258       0.9884065759622316       0.10728760436887373      0.45516229757338705      1.0316140247561423
0                         -1.956                   1.067602562192828        -0.634225857562766       0.10477687612724002      0.449499136276149        0.9852501795131993       0.10831495490100099      0.45932799874852137      1.0231656707098926
0                         -1.955                   1.0669068814984357       -0.6341868380762751      0.10576054810852843      0.4534860684771319       0.982093783064168        0.10933409000457373      0.4634337832460749       1.015180219920389
0                         -1.954                   1.0662145858871264       -0.6341468684276276      0.10674106369336822      0.45743248162180167      0.9789373866151362       0.11034546384102971      0.4674814324489251       1.007640289633038
0                         -1.953                   1.0655256753589009       -0.6341059486168237      0.1077184228817588       0.46133860886069045      0.975780990166104        0.11134951348931604      0.4714726796583032       1.0005290952338517
0                         -1.952                   1.0648401499137587       -0.6340640786438635      0.10869262567370036      0.46520468155889055      0.9726245937170727       0.1123466595368613       0.4754092110215685       0.9938304359085512
0                         -1.951                   1.0641580095517          -0.6340212585087468      0.10966367206919297      0.4690309293133468       0.969468197268041        0.11333730665620477      0.4792926664471985       0.9875286803020362
0                         -1.95                    1.0634792542727245       -0.6339774882114738      0.11063156206823668      0.47281757996952106      0.9663118008190089       0.1143218441672843       0.48312464051213294      0.981608752177469
0                         -1.949                   1.0628038840768328       -0.6339327677520444      0.11159629567083101      0.47656485963805073      0.9631554043699775       0.11530064658538466      0.48690668335728127      0.9760561160756943
0                         -1.948                   1.062131898964024        -0.6338870971304584      0.11255787287697676      0.4802729927114821       0.9599990079209446       0.116274074154746        0.49064030157592786      0.9708567629744188
0                         -1.947                   1.0614632989342994       -0.6338404763467163      0.11351629368667286      0.48394220188016573      0.9568426114719147       0.11724247336782763      0.4943269590896542       0.9659971959475422
0                         -1.946                   1.0607980839876576       -0.6337929054008175      0.11447155809992011      0.4875727081487474       0.9536862150228813       0.11820617747023729      0.49796807801665477      0.9614644158243861
0                         -1.945                   1.0601362541240995       -0.6337443842927625      0.11542366611671855      0.4911647308518205       0.9505298185738503       0.11916550695131366      0.5015650395306045       0.9572459068490068
0                         -1.944                   1.0594778093436248       -0.6336949130225512      0.116372617737068        0.4947184876698533       0.9473734221248189       0.12012077002037147      0.505119184711182        0.9533296223394602
0                         -1.943                   1.0588227496462332       -0.6336444915901832      0.1173184129609684       0.4982341946446322       0.9442170256757864       0.12107226306860526      0.5086318153835586       0.9497039703470541
0                         -1.942                   1.0581710750319255       -0.633593119995659       0.11826105178841964      0.5017120661946115       0.9410606292267547       0.12202027111665212      0.5121041949502405       0.946357799315669
0                         -1.941                   1.0575227855007012       -0.6335407982389785      0.11920053421942166      0.5051523151303696       0.937904232777723        0.12296506824781403      0.5155375492155969       0.9432803837409545
0                         -1.94                    1.0568778810525603       -0.6334875263201414      0.12013686025397506      0.5085551526693839       0.9347478363286905       0.12390691802693994      0.5189330671969169       0.940461409829693
0                         -1.939                   1.0562363616875026       -0.6334333042391479      0.12107002989207923      0.5119207884510671       0.9315914398796594       0.12484607390496456      0.5222919019346568       0.9378909611590148
0                         -1.938                   1.0555982274055284       -0.633378131995998       0.12200004313373436      0.5152494305513601       0.9284350434306277       0.1257827796091105       0.5256151712856403       0.935559504335692
0                         -1.937                   1.054963478206638        -0.6333220095906918      0.12292689997894066      0.5185412854974579       0.9252786469815945       0.1267172695187466       0.5289039587147477       0.9334578746554024
0                         -1.936                   1.0543321140908308       -0.6332649370232293      0.12385060042769752      0.5217965582820034       0.9221222505325635       0.12764976902690575      0.5321593140746552       0.9315772617620229
0                         -1.935                   1.0537041350581071       -0.6332069142936102      0.12477114448000555      0.5250154523774495       0.9189658540835319       0.12858049488746467      0.535382254378593        0.9299091953068939
0                         -1.934                   1.0530795411084666       -0.6331479414018348      0.12568853213586478      0.5281981697500728       0.9158094576344993       0.1295096555479793       0.5385737645654652       0.9284455306080733
0                         -1.933                   1.0524583322419097       -0.633088018347903       0.12660276339527454      0.5313449108737976       0.912653061185468        0.13043745146818106      0.5417347982566353       0.9271784343096457
0                         -1.932                   1.0518405084584364       -0.6330271451318147      0.1275138382582357       0.5344558747441329       0.9094966647364361       0.13136407542413467      0.5448662785046188       0.926100370040991
0                         -1.931                   1.0512260697580462       -0.6329653217535701      0.1284217567247474       0.5375312588916361       0.906340268287405        0.13228971279804982      0.5479690985343543       0.9252040840760174
0                         -1.93                    1.0506150161407397       -0.632902548213169       0.12932651879481027      0.5405712593954825       0.9031838718383729       0.1332145418537585       0.551044122477426        0.9244825909924834
0                         -1.929                   1.0500073476065166       -0.6328388245106117      0.13022812446842413      0.5435760708965727       0.9000274753893419       0.1341387339978464       0.5540921860978072       0.9239291593312716
0                         -1.928                   1.0494030641553767       -0.6327741506458978      0.13112657374558914      0.5465458866109912       0.8968710789403093       0.1350624540264466       0.5571140975114015       0.9235372972555775
0                         -1.927                   1.0488021657873206       -0.6327085266190275      0.13202186662630494      0.5494808983426585       0.8937146824912774       0.13598586035769078      0.5601106378964057       0.9233007382103474
0                         -1.926                   1.0482046525023478       -0.632641952430001       0.1329140031105715       0.552381296496649        0.8905582860422455       0.13690910524982144      0.5630825621983948       0.9232134265814163
0                         -1.925                   1.0476105243004583       -0.6325744280788179      0.1338029831983892       0.5552472700914595       0.8874018895932136       0.13783233500496236      0.5660305998279241       0.923269503354777
0                         -1.924                   1.0470197811816524       -0.6325059535654785      0.1346888068897579       0.5580790067719458       0.8842454931441828       0.1387556901585478       0.5689554553498815       0.9234632917759723
0                         -1.923                   1.0464324231459299       -0.6324365288899827      0.13557147418467758      0.5608766928216381       0.8810890966951519       0.13967930565441192      0.5718578091670569       0.923789283009264
0                         -1.922                   1.0458484501932908       -0.6323661540523304      0.1364509850831484       0.5636405131751004       0.8779327002461192       0.14060331100553755      0.574738318196127        0.9242421217969378
0                         -1.921                   1.0452678623237353       -0.6322948290525219      0.13732733958516982      0.5663706514299826       0.8747763037970884       0.1415278304404627       0.5775976165378752       0.9248165921186159
0                         -1.92                    1.04469063409407         -0.6322225492617995      0.1382029629741179       0.569076270374191        0.8979862047539837       0.14245298326638495      0.580436316458786        0.925510279239582
0                         -1.919                   1.0441161797261096       -0.6321492641805656      0.1391020389204326       0.571847655190558        0.9001656878752368       0.14337888799855963      0.5832550115767894       0.926317607156174
0                         -1.918                   1.0435444467501118       -0.6320750108035658      0.1400032943498685       0.5746065659806114       0.9023451709964893       0.14430565461682401      0.5860542680833661       0.9272333482607135
0                         -1.917                   1.0429754351660778       -0.6319997891308003      0.14090672926242553      0.577353026977778        0.9045246541177422       0.14523338944876923      0.5888346343266011       0.9282533551289814
0                         -1.916                   1.0424091449740063       -0.6319235991622693      0.14181234365810394      0.5800870623529003       0.9067041372389978       0.14616219474532588      0.5915966387750848       0.9293736213196186
0                         -1.915                   1.0418455761738987       -0.6318464408979727      0.14272013753690346      0.5828086962141588       0.9088836203602485       0.14709216882011497      0.5943407905588212       0.9305902781122096
0                         -1.914                   1.0412847287657538       -0.6317683143379099      0.1436301108988242       0.5855179526074981       0.9110631034815039       0.14802340618553902      0.5970675799914472       0.9318995912451535
0                         -1.913                   1.0407266027495725       -0.6316892194820818      0.1445422637438663       0.5882148555167547       0.9132425866027564       0.14895599768560872      0.5997774790921623       0.9332979576534268
0                         -1.912                   1.0401711981253539       -0.631609156330488       0.1454565960720299       0.5908994288637356       0.9154220697240094       0.14989003062550907      0.6024709420864317       0.9347819022065129
0                         -1.911                   1.0396185148930983       -0.6315281248831283      0.14637310788331476      0.593571696508656        0.9176015528452635       0.15082558889790215      0.6051484059056218       0.9363480744462583
0                         -1.91                    1.039068553052806        -0.631446125140003       0.1472917991777205       0.5962316822500499       0.9197810359665176       0.15176275310596848      0.6078102906728022       0.9379932453246789
0                         -1.909                   1.038521312604477        -0.6313631571011118      0.1482126699552475       0.5988794098252501       0.92196051908777         0.15270160068318764      0.6104570001766935       0.9397143039419023
0                         -1.908                   1.037976793548111        -0.6312792207664552      0.14913572021589622      0.6015149029104411       0.9241400022090249       0.15364220600985384      0.6130889223392716       0.9415082542839768
0                         -1.907                   1.0374349958837084       -0.6311943161360327      0.1500609499596655       0.6041381851208141       0.9263194853302769       0.15458464052632973      0.6157064296676823       0.9433722119607701
0                         -1.906                   1.0368959196112681       -0.6311084432098445      0.15098835918655687      0.6067492800108463       0.9284989684515302       0.15552897284304307      0.6183098797050184       0.9453034009437942
0                         -1.905                   1.036359564730792        -0.6310216019878906      0.15191794789656882      0.6093482110745673       0.9306784515727826       0.1564752688472118       0.6208996154600358       0.9472991503041183
0                         -1.904                   1.0358259312422786       -0.630933792470171       0.1528497160897021       0.6119350017454719       0.9328579346940366       0.15742359180631763      0.6234759658378638       0.9493568909501492
0                         -1.903                   1.0352950191457284       -0.6308450146566857      0.15378366376595667      0.614509675397045        0.9350374178152882       0.15837400246830935      0.626039246050868        0.9514741523656052
0                         -1.902                   1.0347668284411415       -0.6307552685474348      0.15471979092533286      0.6170722553428385       0.9372169009365434       0.15932655915854824      0.6285897580289187       0.9536485593472848
0                         -1.901                   1.0342413591285176       -0.6306645541424181      0.15565809756782972      0.6196227648364292       0.9393963840577954       0.16028131787348862      0.6311277908117078       0.9558778287429713
0                         -1.9                     1.0337186112078567       -0.6305728714416357      0.15659858369344837      0.6221612270721054       0.9415758671790494       0.16123833237110075      0.6336536209364587       0.9581597661893095
0                         -1.899                   1.0331985846791591       -0.6304802204450876      0.15754124930218794      0.6246876651844956       0.943755350300302        0.16219765425802465      0.6361675128157465       0.9604922628496214
0                         -1.898                   1.0326812795424247       -0.6303866011527738      0.15848609439404895      0.6272021022492068       0.9459348334215562       0.16315933307346941      0.6386697191010153       0.9628732921518014
0                         -1.897                   1.0321666957976534       -0.6302920135646943      0.1594331189690311       0.6297045612827779       0.9481143165428096       0.16412341636984415      0.6411604810432601       0.9653009065262059
0                         -1.896                   1.0316548334448452       -0.630196457680849       0.16038232302713457      0.6321950652429118       0.9502937996640622       0.16508994979013084      0.6436400288376081       0.9677732341434503
0                         -1.895                   1.031145692484           -0.630099933501238       0.16133370656835958      0.634673637028744        0.9524732827853164       0.1660589771419929       0.6461085819646862       0.9702884756523137
0                         -1.894                   1.030639272915118        -0.6300024410258614      0.16228726959270573      0.6371402994808852       0.9546527659065704       0.16703054046862192      0.6485663495151676       0.9728449009176023
0                         -1.893                   1.0301355747381995       -0.629903980254719       0.16324301210017214      0.6395950753817319       0.9568322490278223       0.1680046801163227       0.6510135305120555       0.9754408457580037
0                         -1.892                   1.0296345979532437       -0.629804551187811       0.16420093409076117      0.6420379874555598       0.9590117321490763       0.16898143479883934      0.6534503142193135       0.9780747086839473
0                         -1.891                   1.0291363425602515       -0.6297041538251372      0.16516103556447048      0.6444690583688861       0.9611912152703295       0.16996084165840852      0.6558768804413259       0.980744947635477
0                         -1.89                    1.0286408085592222       -0.6296027881666978      0.16612331652130155      0.6468883107303908       0.9633706983915823       0.1709429363235665       0.6582933998152581       0.9834500767200802
0                         -1.889                   1.028147995950156        -0.6295004542124927      0.16708777696125376      0.6492957670912399       0.9655501815128359       0.17192775296367918      0.6607000340923959       0.9861886629506225
0                         -1.888                   1.0276579047330532       -0.6293971519625218      0.16805441688432707      0.6516914499453761       0.9677296646340886       0.17291532434021958      0.6630969364086136       0.9889593229831475
0                         -1.887                   1.0271705349079132       -0.6292928814167852      0.16902323629052196      0.6540753817294613       0.9699091477553434       0.17390568185477942      0.6654842515508262       0.9917607198547383
0                         -1.886                   1.0266858864747366       -0.6291876425752829      0.16999423517983772      0.6564475848232099       0.9720886308765946       0.17489885559381793      0.6678621162083733       0.9945915597214431
0                         -1.885                   1.026203959433523        -0.6290814354380149      0.17096741355227507      0.6588080815496266       0.9742681139978479       0.17589487437015167      0.6702306592188103       0.9974505885960406
0                         -1.884                   1.0257247537842726       -0.6289742600049812      0.17194277140783357      0.6611568941749701       0.9764475971191023       0.17689376576117816      0.6725900018058351       1.000336589086017
0                         -1.883                   1.0252482695269853       -0.6288661162761818      0.17292030874651335      0.6634940449092274       0.9786270802403558       0.17789555614384134      0.6749402577995572       1.0032483771313134
0                         -1.882                   1.0247745066616614       -0.6287570042516167      0.17390002556831405      0.6658195559059664       0.9808065633616079       0.17890027072633127      0.6772815338646088       1.0061847987423065
0                         -1.881                   1.0243034651883003       -0.6286469239312859      0.17488192187323653      0.6681334492627888       0.9829860464828605       0.17990793357652574      0.6796139296960338       1.0091447267375326