% Model:              C1EqPe1Eps01.mph
% Version:            COMSOL 5.6.0.280
% Date:               Jun 2 2021, 15:39
% Dimension:          2
% Nodes:              1001
% Expressions:        8
% Description:        Velocity field, x component, Velocity field, y component, Dependent variable u4, Gradient of u4, x component, Gradient of u4, y component, Dependent variable u6, Gradient of u6, x component, Gradient of u6, y component
% Length unit:        m
% x                       y                        u2 (m/s)                 v2 (m/s)                 u4 (1)                   u4x (1/m)                u4y (1/m)                u6 (1)                   u6x (1/m)                u6y (1/m)
0                         -0.5                     -6.876281542782703E-15   1.173622632168802E-18    0.20301955951363262      -0.005930715003151196    0.0018299708951777056    0                        0                        0
0                         -0.499                   0.05844753709306341      -1.8298914919475417E-7   0.20302130576490912      -0.005808486451381701    0.0017193956433577242    0                        0                        0
0                         -0.498                   0.1118630609271285       -4.4002922448693737E-7   0.2030229983049194       -0.005736494375190114    0.001665684377261002     0                        0                        0
0                         -0.497                   0.1602465715022072       -7.711202258765853E-7    0.2030246371336636       -0.005657565171342147    0.0016119731111468385    0                        0                        0
0                         -0.496                   0.2035980688183036       -1.176262153363753E-6    0.20302622225114164      -0.0055713696315219125   0.001558261845029105     0                        0                        0
0                         -0.495                   0.24191755287540878      -1.6554550069483717E-6   0.20302775365735365      -0.005477557382344869    0.0015045505789271546    0                        0                        0
0                         -0.494                   0.2752050236735245       -2.2086987866304493E-6   0.20302923135229953      -0.005375755156014972    0.0014508393128036298    0                        0                        0
0                         -0.493                   0.3039920971985751       -1.993500837960301E-6    0.20303067896474108      -0.005335749988041287    0.001476073614608343     0                        0                        0
0                         -0.492                   0.33124798912018366      -4.501937810857907E-7    0.20303215236056973      -0.005287740108047944    0.0014707180426796753    0                        0                        0
0                         -0.491                   0.3571282673083264       5.948244377256913E-7     0.20303362040082648      -0.005242475554637919    0.0014653624707667385    0                        0                        0
0                         -0.49                    0.3816329317630069       1.14155381847433E-6      0.2030350830855113       -0.0052000114033429945   0.001460006898857722     0                        0                        0
0                         -0.489                   0.4047619824842243       1.1899943611600732E-6    0.20303654041462418      -0.0051604042126380326   0.0014546513269340837    0                        0                        0
0                         -0.488                   0.42651541947197813      7.401460657829214E-7     0.20303799238816514      -0.005123712074484068    0.001449295755008324     0                        0                        0
0                         -0.487                   0.44689324272626846      -2.079910676571062E-7    0.2030394390061342       -0.005089994666554108    0.001443940183103094     0                        0                        0
0                         -0.486                   0.46574896400058174      -2.700401390548007E-7    0.203040884056427        -0.005063248919715949    0.001445613143359223     0                        0                        0
0                         -0.485                   0.4836403221869404       1.805546851157266E-7     0.20304232901181749      -0.005036215420661031    0.001444297637597231     0                        0                        0
0                         -0.484                   0.500737460362355        5.15353811496979E-7      0.20304377265170215      -0.005010630900516499    0.001442982131815629     0                        0                        0
0                         -0.483                   0.5170403785268294       7.343572400890388E-7     0.20304521497608108      -0.004986526023126235    0.0014416666260407295    0                        0                        0
0                         -0.482                   0.5325490766803626       8.375649708918802E-7     0.20304665598495425      -0.004963932323697788    0.0014403511202725648    0                        0                        0
0                         -0.481                   0.5472635548229546       8.249770039054943E-7     0.20304809567832163      -0.004942882240156054    0.0014390356145050605    0                        0                        0
0                         -0.48                    0.5611838129546047       6.965933391298816E-7     0.20304953405618326      -0.004923409145193606    0.0014377201087208827    0                        0                        0
0                         -0.479                   0.5743514959866579       8.239022647475303E-7     0.2030509716567657       -0.004905294282065917    0.001436882817087495     0                        0                        0
0                         -0.478                   0.5870415688968356       9.203524798785664E-7     0.2030524078218174       -0.004887682211327786    0.0014354472864011206    0                        0                        0
0                         -0.477                   0.5992540316851385       9.859439845210854E-7     0.2030538425513385       -0.004870846516647551    0.0014340117557229796    0                        0                        0
0                         -0.476                   0.6109888843515643       1.0206767786750783E-6    0.20305527584532884      -0.004854780421787702    0.0014325762250398466    0                        0                        0
0                         -0.475                   0.6222461268961157       1.0245508623405557E-6    0.20305670770378853      -0.004839477228605055    0.0014311406943580331    0                        0                        0
0                         -0.474                   0.6330257593187915       9.975662355175134E-7     0.20305813812671755      -0.004824930316850427    0.0014297051636682745    0                        0                        0
0                         -0.473                   0.6433034282232567       9.329294417561744E-7     0.20305956713632126      -0.004811156094496523    0.0014282453507704353    0                        0                        0
0                         -0.472                   0.6531597172114123       8.498923089515267E-7     0.20306099439121145      -0.004797799504604022    0.0014262644295728378    0                        0                        0
0                         -0.471                   0.6626958015750518       7.750643921761619E-7     0.2030624196651804       -0.004784878188907838    0.0014242835083840511    0                        0                        0
0                         -0.47                    0.6719116813141739       7.084456914300939E-7     0.2030638429582282       -0.004772389003134156    0.0014223025872078501    0                        0                        0
0                         -0.469                   0.6808073564287805       6.500362067133062E-7     0.20306526427035482      -0.004760328833475808    0.0014203216660036053    0                        0                        0
0                         -0.46799999999999997     0.6893828269188703       5.9983593802581E-7       0.20306668360156022      -0.00474869459578674     0.0014183407448256661    0                        0                        0
0                         -0.46699999999999997     0.697638092784442        5.578448853676108E-7     0.20306810095184444      -0.004737483235489767    0.0014163598236374925    0                        0                        0
0                         -0.46599999999999997     0.7055571653558527       5.209160264590495E-7     0.2030695162496692       -0.004726653468772544    0.001414117586334791     0                        0                        0
0                         -0.46499999999999997     0.7132270150078255       4.997294703355428E-7     0.20307092914578193      -0.004716077958226903    0.0014116746390442892    0                        0                        0
0                         -0.46399999999999997     0.7206714312831647       4.976800477161082E-7     0.2030723395989473       -0.0047057679903030536   0.0014092316917596703    0                        0                        0
0                         -0.463                   0.7278904141818701       5.147677586007448E-7     0.20307374760916547      -0.004695722101283858    0.0014067887444748953    0                        0                        0
0                         -0.462                   0.7348839637039427       5.509926029894556E-7     0.20307515317643626      -0.0046859388379546785   0.0014043457971903808    0                        0                        0
0                         -0.461                   0.7416520798493819       6.063545808822406E-7     0.2030765563007598       -0.0046764167576024175   0.0014019028498929247    0                        0                        0
0                         -0.46                    0.7481947626181877       6.808536922791007E-7     0.20307795698213607      -0.004667154428543553    0.0013994599025936548    0                        0                        0
0                         -0.459                   0.754504387997367        7.041167499363264E-7     0.20307935505648675      -0.004658096014343886    0.0013966898284144928    0                        0                        0
0                         -0.458                   0.7606485388739758       7.142601157670669E-7     0.2030807503617929       -0.004649214150279054    0.0013939207838940494    0                        0                        0
0                         -0.457                   0.7666272152480147       7.112837897716251E-7     0.20308214289805454      -0.004640507929775198    0.0013911517393588638    0                        0                        0
0                         -0.456                   0.7724404171194833       6.951877719500004E-7     0.2030835326652716       -0.004631976651949749    0.0013883826948256686    0                        0                        0
0                         -0.455                   0.7780881444883819       6.659720623021937E-7     0.20308491966344416      -0.004623619619462025    0.0013856136502936563    0                        0                        0
0                         -0.454                   0.7835703973547107       6.236366608282014E-7     0.2030863038925722       -0.004615436138582904    0.0013828446057574204    0                        0                        0
0                         -0.453                   0.7888809442113872       5.718461406304622E-7     0.20308768533521473      -0.004607418051309633    0.0013799878964325253    0                        0                        0
0                         -0.452                   0.7940404380433985       5.240837855221337E-7     0.20308906383256273      -0.0045995331550306995   0.001377006799442093     0                        0                        0
0                         -0.451                   0.7990747841109413       4.779298046535017E-7     0.20309043934881366      -0.004591773280760883    0.0013740257024641442    0                        0                        0
0                         -0.45                    0.8039839824140167       4.333841980245645E-7     0.20309181188396766      -0.004584138084232926    0.0013710446054896862    0                        0                        0
0                         -0.449                   0.8087680329526239       3.904469656353234E-7     0.20309318143802466      -0.004576627221717032    0.0013680635085096954    0                        0                        0
0                         -0.448                   0.8134269357267631       3.4911810748577864E-7    0.20309454801098467      -0.004569240351367228    0.0013650824115279576    0                        0                        0
0                         -0.447                   0.8179606907364342       3.0939762357592974E-7    0.2030959116028477       -0.004561977132445641    0.001362101314554218     0                        0                        0
0                         -0.446                   0.8223633278023406       2.789112018098508E-7     0.20309727217139928      -0.004554825634066078    0.0013590136519128367    0                        0                        0
0                         -0.445                   0.8266612872001384       2.5402422972466896E-7    0.2030986296296368       -0.004547770199726377    0.001355902823070182     0                        0                        0
0                         -0.444                   0.830862245056678        2.3095950966606506E-7    0.20309998397704543      -0.004540808747898366    0.0013527919942066368    0                        0                        0
0                         -0.443                   0.8349662013719603       2.0971704163403604E-7    0.20310133521362522      -0.004533941112593932    0.001349681165366486     0                        0                        0
0                         -0.442                   0.8389731561459847       1.9029682562858469E-7    0.20310268333937614      -0.0045271671281173044   0.0013465703365243672    0                        0                        0
0                         -0.441                   0.842883109378751        1.7269886164971125E-7    0.20310402835429825      -0.00452048662942527     0.0013434595076658846    0                        0                        0
0                         -0.44                    0.8466960610702593       1.5692314969741548E-7    0.2031053702583915       -0.0045138994516042185   0.0013403486788332206    0                        0                        0
0                         -0.439                   0.8504083775919086       1.2895285432775114E-7    0.20310670899758557      -0.00450739140241169     0.0013371474529171277    0                        0                        0
0                         -0.438                   0.8540439960650238       1.041712936321396E-7     0.20310804455329737      -0.004500958866146668    0.0013339639706960466    0                        0                        0
0                         -0.437                   0.8576029164896051       8.257846761065963E-8     0.2031093769255269       -0.004494600644166611    0.001330780488462852     0                        0                        0
0                         -0.436                   0.8610851388656526       6.417437626331148E-8     0.20311070611427426      -0.00448831666306279     0.0013275970062270983    0                        0                        0
0                         -0.435                   0.864490663193166        4.895901959009643E-8     0.20311203211953938      -0.004482106849255389    0.0013244135240020835    0                        0                        0
0                         -0.434                   0.8678194894721459       3.6932397591011694E-8    0.20311335494132227      -0.004475971129611685    0.0013212300417623126    0                        0                        0
0                         -0.433                   0.8710688565508689       2.9341195851882347E-8    0.20311467457303004      -0.004469907205269383    0.0013180209127877428    0                        0                        0
0                         -0.432                   0.8742460136794921       2.6818792930992137E-8    0.2031159909845976       -0.0044639057694313      0.0013148022224066306    0                        0                        0
0                         -0.431                   0.8773614883624038       2.656516414283295E-8     0.20311730417747487      -0.0044579652352111565   0.0013115835320413856    0                        0                        0
0                         -0.43                    0.8804152805996035       2.8580309487404974E-8    0.20311861415166169      -0.004452085578014205    0.0013083648416620946    0                        0                        0
0                         -0.429                   0.8834073903910912       3.286422896470794E-8     0.20311992090715816      -0.004446266773189051    0.0013051461512861434    0                        0                        0
0                         -0.428                   0.8863378177368669       3.9416922574741934E-8    0.20312122444396427      -0.004440508796313851    0.001301927460915521     0                        0                        0
0                         -0.427                   0.8892065626369305       4.82383903175069E-8      0.20312252476208         -0.004434811622600502    0.0012987087705373496    0                        0                        0
0                         -0.426                   0.8920103334398013       6.123175137376063E-8     0.20312382185280334      -0.004429171576208864    0.0012954737633564248    0                        0                        0
0                         -0.425                   0.894760241246383        7.447578618520448E-8     0.2031251157123258       -0.004423583199786844    0.0012922452816027375    0                        0                        0
0                         -0.424                   0.8974598249374487       8.642500316783485E-8     0.20312640634336654      -0.004418046447178918    0.001289016799850081     0                        0                        0
0                         -0.423                   0.900109084512998        9.707940232165103E-8     0.20312769374592554      -0.0044125613184817095   0.0012857883180993816    0                        0                        0
0                         -0.422                   0.9027080199730315       1.0643898364665567E-7    0.20312897792000276      -0.004407127814001082    0.0012825598363540882    0                        0                        0
0                         -0.421                   0.9052566313175489       1.145037471428468E-7     0.20313025886559824      -0.004401745933982339    0.0012793313546047595    0                        0                        0
0                         -0.42                    0.9077549185465503       1.2127369281022555E-7    0.20313153658271196      -0.004396415678366741    0.0012761028728563628    0                        0                        0
0                         -0.419                   0.9102000358078832       1.3579529855528328E-7    0.2031328110673864       -0.004391131702358601    0.0012728733818382612    0                        0                        0
0                         -0.418                   0.9126035563893778       1.4889075535319325E-7    0.2031340823294756       -0.004385892548896241    0.001269650796674339     0                        0                        0
0                         -0.417                   0.9149654802910344       1.605600632039078E-7     0.20313535036897973      -0.00438069813815089     0.001266428211507053     0                        0                        0
0                         -0.416                   0.9172858075128527       1.7080322210742785E-7    0.20313661518589862      -0.004375548481217628    0.0012632056263396875    0                        0                        0
0                         -0.415                   0.9195645380548328       1.7962023206375234E-7    0.20313787678023237      -0.004370443589111316    0.0012599830411840478    0                        0                        0
0                         -0.414                   0.9218016719169746       1.870110930728818E-7     0.20313913515198098      -0.004365383473036075    0.0012567604560248863    0                        0                        0
0                         -0.413                   0.9239955684606856       1.9091105404758424E-7    0.20314039030063066      -0.0043603673761605085   0.0012535389761941       0                        0                        0
0                         -0.41200000000000003     0.9261491424025547       1.8966866603078055E-7    0.20314164223625406      -0.004355391160090402    0.0012503322704961431    0                        0                        0
0                         -0.41100000000000003     0.928267952697358        1.8762008226215414E-7    0.20314289096517166      -0.004350454554928879    0.0012471255648115228    0                        0                        0
0                         -0.41000000000000003     0.9303519993450953       1.8476530274170515E-7    0.20314413648738366      -0.00434555757433723     0.0012439188591422067    0                        0                        0
0                         -0.40900000000000003     0.9324012823457667       1.811043274694333E-7     0.20314537880288996      -0.0043407002315771865   0.001240712153453313     0                        0                        0
0                         -0.40800000000000003     0.9344158016993723       1.766371564453389E-7     0.20314661791169059      -0.004335882540424671    0.0012375054477745877    0                        0                        0
0                         -0.40700000000000003     0.936395557405912        1.7136378966942176E-7    0.20314785381378547      -0.004331104514425935    0.0012342987421007623    0                        0                        0
0                         -0.406                   0.9383382807795048       1.6528229444470452E-7    0.2031490865121519       -0.004326364470339596    0.0012311035300924332    0                        0                        0
0                         -0.405                   0.9402496217216868       1.6022116013912938E-7    0.20315031602287106      -0.0043216598028296025   0.001227917908265294     0                        0                        0
0                         -0.404                   0.9421316176871184       1.5654685770508213E-7    0.20315154234796845      -0.004316990663575374    0.001224732286424777     0                        0                        0
0                         -0.403                   0.9439842686757988       1.5425938714256335E-7    0.20315276548744393      -0.004312357063803812    0.00122154666457604      0                        0                        0
0                         -0.402                   0.9458075746877282       1.5335874845157288E-7    0.2031539854412976       -0.00430775901430901     0.0012183610427282175    0                        0                        0
0                         -0.401                   0.9476015357229068       1.5384494163211058E-7    0.20315520220952937      -0.0043031965263566644   0.0012151754208930975    0                        0                        0
0                         -0.4                     0.9493661517813347       1.5571796668417654E-7    0.20315641579213936      -0.004298669611035651    0.0012119897990267785    0                        0                        0
0                         -0.399                   0.9510990711641104       1.6197991085667972E-7    0.2031576261993123       -0.004294175468225749    0.0012088263476474196    0                        0                        0
0                         -0.398                   0.9528069895900865       1.6908460702375195E-7    0.20315883344483468      -0.004289713610849623    0.0012056646970845972    0                        0                        0
0                         -0.397                   0.954489907059263        1.7703205518537732E-7    0.20316003752870646      -0.004285284042372111    0.001202503046501996     0                        0                        0
0                         -0.396                   0.9561478235716396       1.8582225534155495E-7    0.20316123845092765      -0.004280886769049467    0.0011993413959217295    0                        0                        0
0                         -0.395                   0.9577807391272167       1.9545520749228518E-7    0.20316243621149832      -0.004276521796664511    0.0011961797453503222    0                        0                        0
0                         -0.394                   0.9593886537259941       2.0593091163756862E-7    0.20316363081041836      -0.004272189131241699    0.0011930180947617715    0                        0                        0
0                         -0.393                   0.9609704545577287       2.1667061131609458E-7    0.20316482224879423      -0.004267888323317505    0.0011898639107759963    0                        0                        0
0                         -0.392                   0.9625273758832517       2.261285877634149E-7     0.2031660105443218       -0.004263617114724463    0.0011867271443227435    0                        0                        0
0                         -0.391                   0.9640628168585867       2.349788727506148E-7     0.20316719570308286      -0.004259375512131853    0.0011835903778731347    0                        0                        0
0                         -0.39                    0.9655767774837346       2.4322146627769414E-7    0.2031683777250775       -0.0042551635156414525   0.0011804536114286318    0                        0                        0
0                         -0.389                   0.967069257758695        2.5085636834465375E-7    0.20316955661030575      -0.004250981125049857    0.001177316844982659     0                        0                        0
0                         -0.388                   0.9685402576834679       2.5788357895149274E-7    0.2031707323587675       -0.004246828340431129    0.0011741800785400776    0                        0                        0
0                         -0.387                   0.9699897772580532       2.6430309809821206E-7    0.20317190497046284      -0.004242705161489298    0.0011710433120903701    0                        0                        0
0                         -0.386                   0.9714161776716373       2.674341128075148E-7     0.20317307445081695      -0.004238610647792891    0.0011679228231371711    0                        0                        0
0                         -0.385                   0.9728226898657173       2.678998825767242E-7     0.2031742408174662       -0.004234543408067607    0.0011648104753527258    0                        0                        0
0                         -0.384                   0.9742106155529172       2.668973844962554E-7     0.20317540407176768      -0.004230503534983546    0.0011616981275687686    0                        0                        0
0                         -0.383                   0.975579954733238        2.6442661856610834E-7    0.20317656421372138      -0.004226491022355481    0.001158585779794836     0                        0                        0
0                         -0.382                   0.9769307074066792       2.604875847862826E-7     0.20317772124332728      -0.004222505863975971    0.0011554734320271289    0                        0                        0
0                         -0.381                   0.9782628735732406       2.5508028315677897E-7    0.20317887516058541      -0.004218548053712001    0.0011523610842380317    0                        0                        0
0                         -0.38                    0.9795764532329224       2.4820471367759757E-7    0.20318002596549578      -0.004214617585549366    0.0011492487364566934    0                        0                        0
0                         -0.379                   0.9808696313948932       2.4016583526012593E-7    0.20318117366946867      -0.004210712723349089    0.001146159320809041     0                        0                        0
0                         -0.378                   0.9821466113239504       2.3078536188546008E-7    0.20318231828413738      -0.00420683326926986     0.001143070016591697     0                        0                        0
0                         -0.377                   0.9834073930200938       2.2006329355359988E-7    0.2031834598095019       -0.004202979212251608    0.0011399807123779668    0                        0                        0
0                         -0.376                   0.9846519764833234       2.0799963026454466E-7    0.20318459824556215      -0.0041991505414119374   0.0011368914081434302    0                        0                        0
0                         -0.375                   0.9858803617136392       1.9459437201829409E-7    0.20318573359231817      -0.004195347245706442    0.0011338021039214916    0                        0                        0
0                         -0.374                   0.9870925487110416       1.7984751881484846E-7    0.20318686584977         -0.004191569314144463    0.001130712799705781     0                        0                        0
0                         -0.373                   0.9882877631362891       1.645927398632088E-7     0.2031879950192222       -0.00418781645912224     0.0011276309883830246    0                        0                        0