% Model:              C1EqPe1Eps01.mph
% Version:            COMSOL 5.6.0.280
% Date:               Jun 2 2021, 15:39
% Dimension:          2
% Nodes:              401
% Expressions:        8
% Description:        Velocity field, x component, Velocity field, y component, Dependent variable u3, Gradient of u3, x component, Dependent variable u5, Gradient of u5, x component, , 
% Length unit:        m
% x                       y                        u (m/s)                  v (m/s)                  u3 (1)                   u3x (1/m)                u5 (1)                   u5x (1/m)                -u*u3+u3x                -u*u5+u5x
-2                        0                        1.4995578599253545       -5.2000554391656395E-11  0.856657488351457        -0.11137720041093022     0                        0                        -1.3959846703322705      0
-1.99                     0                        1.4995578871802542       -6.924988823507973E-11   0.8555389876401523       -0.11232294185002034     0                        0                        -1.395253178556021       0
-1.98                     0                        1.499557917350612        2.3379311554685066E-11   0.8544110273511687       -0.1132709253128189      0                        0                        -1.394509746048934       0
-1.97                     0                        1.499557950771055        -1.1091839923386754E-10  0.8532734871351814       -0.11423862091294333     0                        0                        -1.393771662728648       0
-1.96                     0                        1.4995579877618055       2.533073912574073E-11    0.8521262510294372       -0.11520903218460099     0                        0                        -1.3930217584973148      0
-1.95                     0                        1.499558028437564        -8.923481282298445E-11   0.8509692543053949       -0.11619363003557101     0                        0                        -1.3922714072827531      0
-1.94                     0                        1.4995580734571885       -1.0952400212999883E-11  0.8498023657403639       -0.11718422034065694     0                        0                        -1.3915122187296383      0
-1.93                     0                        1.499558123060728        -8.280162832044385E-11   0.8486255266026653       -0.1181886371656939      0                        0                        -1.3907519390194087      0
-1.92                     0                        1.4995581774753544       -1.389207396310764E-10   0.8474385721194113       -0.11920225948510238     0                        0                        -1.3899857002148035      0
-1.91                     0                        1.4995582370830056       9.221236871474731E-11    0.8462414475474255       -0.12022659079684575     0                        0                        -1.389214924027634       0
-1.9                      0                        1.4995583026673953       -4.654516895070249E-11   0.8450340276642866       -0.121258582794755       0                        0                        -1.3884363750152053      0
-1.89                     0                        1.4995583743881098       -7.815079635856565E-11   0.8438162343454814       -0.12230435414203161     0                        0                        -1.387656054799438       0
-1.88                     0                        1.4995584532039365       -2.5397648277011695E-11  0.8425879059650424       -0.12336132194576213     0                        0                        -1.386871138903045       0
-1.87                     0                        1.499558539524982        -3.7378593600202214E-11  0.8413490081104127       -0.12441764357945015     0                        0                        -1.386069733412293       0
-1.8599999999999999       0                        1.4995586334788822       -1.3925362915346967E-10  0.8400993813751423       -0.12550538768601688     0                        0                        -1.3852836680073795      0
-1.85                     0                        1.4995587363206884       -1.312134320999972E-10   0.8388389007488922       -0.12659073756401207     0                        0                        -1.3844789395476562      0
-1.84                     0                        1.4995588484001185       -5.172041160585595E-11   0.8375675310730524       -0.12768944717625416     0                        0                        -1.3836712495294912      0
-1.83                     0                        1.4995589705178343       -9.015969742504943E-11   0.8362850729613573       -0.12880217516275191     0                        0                        -1.382860958232117       0
-1.82                     0                        1.4995591031555708       6.092277537103122E-11    0.8349914659749047       -0.12992414793857754     0                        0                        -1.382043201798461       0
-1.81                     0                        1.4995592479392723       7.301351724908506E-11    0.833686561995917        -0.13105664785899124     0                        0                        -1.381219041782666       0
-1.8                      0                        1.4995594051681547       -2.230040607526876E-10   0.832370310463726        -0.13219999539818886     0                        0                        -1.3803887230368062      0
-1.79                     0                        1.499559576106152        -9.824970569136053E-11   0.8310425154670995       -0.13335957584241276     0                        0                        -1.3795573380624466      0
-1.78                     0                        1.4995597612352263       -7.584353882947511E-11   0.8297031095639266       -0.13452527583490867     0                        0                        -1.3787146727087152      0
-1.77                     0                        1.499559962347791        -1.3246974717917182E-10  0.8283519462810592       -0.13570783717166077     0                        0                        -1.3778712505476054      0
-1.76                     0                        1.499560179732444        -2.7001003345619884E-10  0.826988922124397        -0.1369012127125265      0                        0                        -1.3770208694101274      0
-1.75                     0                        1.4995604157754072       2.090512819445601E-11    0.8256139075381509       -0.13810231126897918     0                        0                        -1.3761602457268474      0
-1.74                     0                        1.4995606707128102       -3.238267368910592E-10   0.824226798044595        -0.13932352335085926     0                        0                        -1.375301613446084       0
-1.73                     0                        1.4995609459817913       -1.987433466242354E-10   0.8228274331919664       -0.14055031699689868     0                        0                        -1.374430201094013       0
-1.72                     0                        1.4995612435464043       -6.5443487613271825E-12  0.8214157080692559       -0.14179470754519877     0                        0                        -1.3735578682060825      0
-1.71                     0                        1.4995615648425482       9.87242908990833E-11     0.8199915271751259       -0.14304516469852488     0                        0                        -1.3726729423468875      0
-1.7                      0                        1.499561911708004        -5.246606634650764E-10   0.8185547030779022       -0.14431983745564272     0                        0                        -1.3717932928407193      0
-1.69                     0                        1.499562284617381        -6.415975643319431E-11   0.8171051312740865       -0.14559452330751083     0                        0                        -1.370894560733465       0
-1.68                     0                        1.4995626860262712       -4.2301637927105526E-10  0.8156427203992453       -0.14689253338863434     0                        0                        -1.3699999220283017      0
-1.67                     0                        1.4995631186935297       -4.5885967899765136E-10  0.8141672563264546       -0.14820028116953088     0                        0                        -1.3690954712045835      0
-1.66                     0                        1.4995635843276232       3.303925049072374E-10    0.8126787049786787       -0.14951460287541016     0                        0                        -1.3681779946199686      0
-1.65                     0                        1.4995640839533877       -1.6660231863768243E-10  0.8111768535952184       -0.15085567381658815     0                        0                        -1.3672673492022933      0
-1.6400000000000001       0                        1.4995646191213843       -9.286469893250588E-11   0.8096615890886857       -0.15220012625018406     0                        0                        -1.3663399987091738      0
-1.63                     0                        1.4995651936075718       -3.4680450711078547E-10  0.8081327642354126       -0.15356484440445262     0                        0                        -1.3654126094657513      0
-1.62                     0                        1.4995658102984217       -3.4285031005059676E-11  0.8065902918607448       -0.1549298350519494      0                        0                        -1.3644650596449477      0
-1.6099999999999999       0                        1.49956647108258         -5.221618773209609E-10   0.8050339863575756       -0.15633038951849165     0                        0                        -1.3635323635422631      0
-1.6                      0                        1.4995671768218009       -5.024220089335345E-10   0.8034636841819378       -0.15773004560901543     0                        0                        -1.3625778141765668      0
-1.5899999999999999       0                        1.4995679316124182       -2.6825079080978225E-10  0.8018793021859674       -0.1591488263268271      0                        0                        -1.3616213129086474      0
-1.58                     0                        1.4995687388587835       -1.3139113418441614E-10  0.8002806538237763       -0.1605814402385539      0                        0                        -1.360657291026157       0
-1.57                     0                        1.499569598763438        7.204789369285891E-10    0.798667599969631        -0.16203146524421058     0                        0                        -1.3596891176760282      0
-1.56                     0                        1.4995705178076482       -9.825220957998472E-10   0.7970400174474387       -0.1634887813672255      0                        0                        -1.358706493044298       0
-1.55                     0                        1.4995714959786939       1.2811506897948022E-9    0.7953977173324126       -0.164971241637989       0                        0                        -1.3577269865161932      0
-1.54                     0                        1.4995725364936499       -5.946044627604181E-10   0.7937405855241553       -0.16645952099419645     0                        0                        -1.3567311041466088      0
-1.53                     0                        1.499573642407502        8.162158709585443E-10    0.792068444863527        -0.1679724283622285      0                        0                        -1.3557373912622734      0
-1.52                     0                        1.4995748179983883       -7.859854612145227E-11   0.7903811276180497       -0.16949102073326652     0                        0                        -1.3547266563304643      0
-1.51                     0                        1.4995760679652606       3.160953595005048E-10    0.788678565769907        -0.17103002335414244     0                        0                        -1.3537135258998607      0
-1.5                      0                        1.4995773909552736       1.4066031098538466E-9    0.7869604696964597       -0.1725891913352731      0                        0                        -1.3526973192676268      0
-1.49                     0                        1.4995787917971555       6.026507963536664E-11    0.785226782031154        -0.17414979226324992     0                        0                        -1.3516592213482963      0
-1.48                     0                        1.4995802751868745       1.5133234816701606E-10   0.7834773257471563       -0.17574471883506085     0                        0                        -1.3506318625816582      0
-1.47                     0                        1.4995818439266881       -9.14423357437805E-10    0.7817118805102709       -0.1773448258746705      0                        0                        -1.3495857690696615      0
-1.46                     0                        1.499583498199435        -4.0910873761246907E-10  0.779930378576962        -0.1789631168033821      0                        0                        -1.3485338422618325      0
-1.45                     0                        1.4995852435605903       2.992830261236419E-12    0.7781325570336387       -0.18060130189240264     0                        0                        -1.3474774019541167      0
-1.44                     0                        1.499587078290275        3.766254510564544E-10    0.776318312864326        -0.1822543591565031      0                        0                        -1.3464112697679533      0
-1.43                     0                        1.499589009750681        1.268718934347969E-10    0.7744874412966554       -0.18391995437760542     0                        0                        -1.3453328095359953      0
-1.42                     0                        1.4995910398447696       -1.3156093756909779E-9   0.7726398366531363       -0.18560875387268314     0                        0                        -1.3442525299448527      0
-1.4100000000000001       0                        1.4995931667775915       -1.5316413555142394E-10  0.77077523181428         -0.1873122138985703      0                        0                        -1.3431614846486786      0
-1.4                      0                        1.4995953910586157       -3.6091005588782033E-10  0.7688935145662927       -0.18903661121634738     0                        0                        -1.3420657818748205      0
-1.3900000000000001       0                        1.4995977176245139       6.244977921047176E-10    0.7669944917813851       -0.190769606825077       0                        0                        -1.3409527961310161      0
-1.38                     0                        1.499600145315025        7.184203569666998E-11    0.7650780225270826       -0.19253094399647439     0                        0                        -1.3398420577554193      0
-1.37                     0                        1.4996026721397695       -1.434974492861612E-9    0.7631438338907539       -0.1943065320608944      0                        0                        -1.3387190645904572      0
-1.3599999999999999       0                        1.499605295430915        -1.3954480459200007E-9   0.7611918438568245       -0.1960992982797846      0                        0                        -1.3375866181663008      0
-1.35                     0                        1.4996080189404524       5.229548887609156E-10    0.7592218155384238       -0.19790819897082515     0                        0                        -1.3364433217067744      0
-1.3399999999999999       0                        1.4996108357197844       1.3583566316681393E-9    0.7572336100031866       -0.19974033124853735     0                        0                        -1.335296057980525       0
-1.33                     0                        1.499613740498017        -7.770685352564733E-10   0.7552269540617816       -0.20159163078991        0                        0                        -1.3341403482954224      0
-1.3199999999999998       0                        1.4996167297415277       -1.9816202574204744E-9   0.7532017571063401       -0.20345428494713022     0                        0                        -1.3329682407745123      0
-1.31                     0                        1.4996197966302627       1.1824049044726693E-9    0.7511577677553676       -0.2053464380768579      0                        0                        -1.3317974969954043      0
-1.2999999999999998       0                        1.499622929857422        -1.2845837178128777E-9   0.7490948037541085       -0.2072521095053617      0                        0                        -1.3306118538520684      0
-1.29                     0                        1.499626121571455        1.5587664120283953E-9    0.7470126821831854       -0.2091759903570518      0                        0                        -1.329415721704112       0
-1.28                     0                        1.4996293597293329       -2.1686772068679155E-9   0.744911197137031        -0.2111247633595965      0                        0                        -1.3282154649774132      0
-1.27                     0                        1.4996326260622905       -4.91985883134231E-10    0.7427901506213409       -0.2130912550723271      0                        0                        -1.327003599261813       0
-1.26                     0                        1.4996358997720032       1.0173238723211846E-9    0.7406493064329565       -0.2150775826045675      0                        0                        -1.3257818716726641      0
-1.25                     0                        1.499639175527324        1.1142845821967042E-9    0.7384885767765699       -0.21707929740810158     0                        0                        -1.3245456978216636      0
-1.24                     0                        1.499642412452915        -6.772174112254136E-10   0.7363076082760078       -0.21911440270436225     0                        0                        -1.3233125206868306      0
-1.23                     0                        1.4996455901717556       -1.4124906664926213E-9   0.7341062669393037       -0.22116142755125143     0                        0                        -1.3220606534842279      0
-1.22                     0                        1.4996486717665052       2.8812208814487083E-9    0.731884314451958        -0.22322906991788358     0                        0                        -1.3207984099725016      0
-1.21                     0                        1.4996516362250172       -1.5270696054112204E-9   0.7296416249333206       -0.22532049688533215     0                        0                        -1.3195287535744669      0
-1.2                      0                        1.4996544209082583       -2.4100405971985873E-9   0.7273778504128477       -0.22743540491199202     0                        0                        -1.318250813954365       0
-1.19                     0                        1.499657000209894        -5.081374042461932E-9    0.7250928931809736       -0.2295666258296788      0                        0                        -1.3169572588909708      0
-1.18                     0                        1.4996593046457734       8.238721395254065E-10    0.7227864286487515       -0.23172628061474257     0                        0                        -1.3156596736095312      0
-1.17                     0                        1.4996612882887572       -5.303312360705106E-9    0.7204582998710317       -0.23390609749596808     0                        0                        -1.3143495196388872      0
-1.1600000000000001       0                        1.4996628638344731       8.3549157694561E-9       0.7181082858574902       -0.23609881484665254     0                        0                        -1.3130191433589606      0
-1.15                     0                        1.499663978215917        -1.159769644419202E-8    0.7157361331961254       -0.23833281001924272     0                        0                        -1.3116965068810216      0
-1.1400000000000001       0                        1.4996645504719683       1.6722643521703533E-8    0.7133416104504426       -0.24057838423616923     0                        0                        -1.3103515098052823      0
-1.13                     0                        1.4996644789436575       -1.912405952864635E-8    0.7109245015882636       -0.24284874914585636     0                        0                        -1.3089969713884992      0
-1.12                     0                        1.4996636559861214       3.254794383361892E-9     0.7084845553838973       -0.24514488410796031     0                        0                        -1.3076334226446775      0
-1.1099999999999999       0                        1.4996619859384013       2.770529150909725E-9     0.7060215562608732       -0.24745668929659176     0                        0                        -1.3062503784740935      0
-1.1                      0                        1.4996593022723737       -1.9160655937159984E-8   0.7035352222326622       -0.24981011634563308     0                        0                        -1.3048732568431065      0
-1.0899999999999999       0                        1.4996554584925588       5.579861415653731E-9     0.7010253410851243       -0.2521681457652366      0                        0                        -1.3034646250651512      0
-1.08                     0                        1.4996503906568783       8.57921605671949E-9      0.6984917536791343       -0.25456319974368985     0                        0                        -1.3020566310192117      0
-1.0699999999999998       0                        1.499643814475746        -4.658344565330676E-8    0.6959339923802671       -0.25698906002974503     0                        0                        -1.3006421669862236      0
-1.06                     0                        1.499635554020736        4.8820998185459194E-9    0.6933519723927449       -0.25941508018563614     0                        0                        -1.2991903494362003      0
-1.0499999999999998       0                        1.4996254673181737       1.2118684916143912E-8    0.6907454680798393       -0.26189445386204224     0                        0                        -1.2977539492291819      0
-1.04                     0                        1.4996132573411793       -2.2840318058667444E-8   0.6881140749697399       -0.2643841681577961      0                        0                        -1.2962891575454802      0
-1.03                     0                        1.4995987372263786       1.0835422011035734E-8    0.6854576558185008       -0.2669048974886845      0                        0                        -1.294816332576262       0
-1.02                     0                        1.4995815378609485       5.2174139343948014E-8    0.682775874017318        -0.2694546218423283      0                        0                        -1.2933327170155713      0
-1.01                     0                        1.4995614846666616       -1.028313513781812E-7    0.6800684939761058       -0.2720299872975392      0                        0                        -1.291834507799369       0
-1                        0                        1.4995380869952994       1.0247464339160652E-7    0.6773352468004563       -0.2746224382560401      0                        0                        -1.2903124384976854      0
-0.99                     0                        1.4995109995494884       -1.1499190642112823E-7   0.6745758651249968       -0.27725960143878825     0                        0                        -1.288793531224333       0
-0.98                     0                        1.4994800052985067       1.674907973128021E-8     0.6717900376966116       -0.27990996390060374     0                        0                        -1.2872456931854028      0
-0.97                     0                        1.49944439381951         4.34700940631782E-8      0.6689774783890189       -0.28260189761795673     0                        0                        -1.2856964271798834      0
-0.96                     0                        1.4994037501333037       4.262232465457986E-9     0.6661379744692271       -0.2853015639506212      0                        0                        -1.2841113409759832      0
-0.95                     0                        1.4993576357531948       -2.9126172219732775E-8   0.6632711838935385       -0.28805708066358315     0                        0                        -1.2825377948094214      0
-0.94                     0                        1.499305529676074        -1.6434455028280752E-8   0.6603768005841179       -0.2908195812204996      0                        0                        -1.2809261700060615      0
-0.9299999999999999       0                        1.4992467622049377       -1.2442742467394045E-7   0.6574545481752077       -0.2936307000638964      0                        0                        -1.2793173027124867      0
-0.9199999999999999       0                        1.499180521998206        2.203911984803502E-8     0.6545041508227367       -0.29645460752067004     0                        0                        -1.277674482001093       0
-0.9099999999999999       0                        1.4991061059287032       6.732916196622285E-8     0.6515252594670975       -0.29932548132737774     0                        0                        -1.2760309759612862      0
-0.8999999999999999       0                        1.4990229970467834       -1.8478361400440395E-8   0.6485175918882929       -0.30221848135113716     0                        0                        -1.274361265581089       0
-0.8899999999999999       0                        1.4989300085897581       1.5628016908185928E-8    0.6454808284528608       -0.30513755035025314     0                        0                        -1.272668134087624       0
-0.8799999999999999       0                        1.4988264542627419       -1.1535883225645656E-7   0.6424146576424513       -0.3081046367642469      0                        0                        -1.2709727202448955      0
-0.8699999999999999       0                        1.4987111666392423       7.27024303933209E-8      0.6393187235258768       -0.31108218655061953     0                        0                        -1.2692362965403976      0
-0.8599999999999999       0                        1.4985829386119676       1.1075129773047069E-8    0.6361928200796707       -0.31411423457001525     0                        0                        -1.267501940408843       0
-0.8499999999999999       0                        1.4984405220909676       -6.715001561270289E-8    0.6330364163984316       -0.3171665016778207      0                        0                        -1.2657339199684816      0
-0.8400000000000001       0                        1.4982832124831835       1.5272225386889386E-7    0.6298493927803882       -0.3202513570613138      0                        0                        -1.2639441286568962      0
-0.8300000000000001       0                        1.4981089630188056       2.0306268186411737E-7    0.6266312159118491       -0.32338401664649974     0                        0                        -1.2621458577114133      0
-0.8200000000000001       0                        1.4979168692500353       -4.5241469064228113E-7   0.6233816864511416       -0.3265333283543195      0                        0                        -1.2603072724710205      0
-0.81                     0                        1.4977048774639212       8.375312687150481E-7     0.6201003912640402       -0.329735030357162       0                        0                        -1.2584624108706008      0
-0.8                      0                        1.4974718427650981       4.36480417692258E-7      0.6167869327051648       -0.33295668141790236     0                        0                        -1.2565777461293381      0
-0.79                     0                        1.4972157346725128       -8.008941050728721E-7    0.6134410275043574       -0.3362338690079622      0                        0                        -1.2546874276811597      0
-0.78                     0                        1.4969332392077381       2.2613916522896158E-7    0.6100622458060547       -0.3395224706525356      0                        0                        -1.2527449243853406      0
-0.77                     0                        1.4966236497465426       1.453727641470712E-7     0.6066503638884585       -0.3428684476245295      0                        0                        -1.2507957293473424      0
-0.76                     0                        1.496283658112875        -2.944765458504496E-7    0.6032047414023881       -0.3462566031529555      0                        0                        -1.2488220002095516      0
-0.75                     0                        1.4959126545497654       1.852973057708913E-7     0.5997252233329284       -0.34965714802870357     0                        0                        -1.2467936988651154      0
-0.74                     0                        1.4955060787488381       -2.2200394110666424E-7   0.5962112952257188       -0.35312978430910336     0                        0                        -1.244767400537884       0
-0.73                     0                        1.4950621242694404       -2.3770432924531922E-7   0.5926626017767967       -0.356608905475329       0                        0                        -1.2426763138628         0