% Model:              C1FullScale.mph
% Version:            COMSOL 5.6.0.280
% Date:               Jun 2 2021, 15:35
% Dimension:          2
% Nodes:              401
% Expressions:        6
% Description:        Velocity field, x component, Velocity field, y component, Concentration, Gradient of c, x component, Gradient of c, y component, 
% Length unit:        m
% x                       y                        u (m/s)                  v (m/s)                  u2 (1)                   u2x (1/m)                u2y (1/m)                -u*u2+u2x
-2                        0                        1.4993174364442976       -6.060261483360533E-10   0.8556423301427422       -0.11244121583644505     -8.274412406891377E-7    -1.3953206807792864
-1.99                     0                        1.49931746704664         -6.127073004699171E-10   0.8545131550642885       -0.11339379985425616     -7.496822780836914E-7    -1.394580299063278
-1.98                     0                        1.4993175008218302       -5.978938546996141E-10   0.8533744389341253       -0.1143550158482795      1.0067247439534174E-6    -1.393834246896224
-1.97                     0                        1.499317538116584        -5.892950664489433E-10   0.8522259966247454       -0.11533344602768589     5.143058448677047E-7     -1.3930908292060513
-1.96                     0                        1.4993175790180573       -5.944233126562332E-10   0.8510677690954728       -0.1163137448164373      -2.550683195266312E-9    -1.3923346119569606
-1.95                     0                        1.4993176240809414       -5.856073298855951E-10   0.8498996462797545       -0.11731081832720107     -7.576948619391596E-7    -1.3915803366945951
-1.94                     0                        1.4993176737773268       -5.806610567329274E-10   0.848721551748971        -0.11830887129719278     1.9056169972581037E-8    -1.390812093950143
-1.93                     0                        1.4993177282970471       -6.223215324233975E-10   0.8475333825099979       -0.11932840662864408     1.718592339104384E-6     -1.3900502323494464
-1.92                     0                        1.4993177880384918       -6.253702357423651E-10   0.846334978298533        -0.12035243566436232     6.604866019409029E-7     -1.3892775232665238
-1.91                     0                        1.499317853227878        -5.338974254698608E-10   0.8451263005872584       -0.12138817111526141     -1.43961626376924E-6     -1.3885011218181678
-1.9                      0                        1.499317924970336        -6.140938009693295E-10   0.8439071950254294       -0.12243376303098699     -2.7520496005545537E-6   -1.3877189475440506
-1.89                     0                        1.4993180032417244       -6.051567677767221E-10   0.8426776097297287       -0.12348695675515407     1.2912995981123268E-6    -1.38692866795164
-1.88                     0                        1.4993180887648792       -4.918209583952777E-10   0.8414373925455543       -0.12455857548681261     9.091114067793146E-7     -1.3861408786935163
-1.87                     0                        1.4993181820800012       -5.824501904616195E-10   0.8401864337872712       -0.12563317616985706     -2.282907762990546E-6    -1.3853399726840678
-1.8599999999999999       0                        1.4993182837985526       -5.100048250655098E-10   0.8389246642247132       -0.12672452608357299     9.025384925501044E-7     -1.384539613885247
-1.85                     0                        1.4993183946634636       -5.068680713993046E-10   0.8376519143976077       -0.12782543933755908     4.454018081652548E-7     -1.3837323629189573
-1.84                     0                        1.4993185153081132       -5.612214783931881E-10   0.8363681395112116       -0.12893499120613292     1.5569249625188248E-6    -1.3829172283890916
-1.83                     0                        1.499318646579676        -5.647799243405313E-10   0.8350731640238871       -0.1300601062588027      6.326086098390192E-7     -1.3821008723381047
-1.82                     0                        1.4993187888848056       -5.016135173404072E-10   0.8337669128946761       -0.13119508042499972     -8.313456415925051E-7    -1.3812774784784687
-1.81                     0                        1.4993189438179386       -5.330312242228545E-10   0.8324492383307596       -0.13233983235829402     -2.772628869245881E-6    -1.380446745154416
-1.8                      0                        1.499319111713832        -4.740272065318707E-10   0.8311200939220372       -0.13349593040122473     -9.271005686479252E-7    -1.37961017134793
-1.79                     0                        1.4993192936941104       -3.1788740740330637E-10  0.8297792580432662       -0.13467124535294864     -9.000579037520746E-8    -1.3787752964444016
-1.78                     0                        1.4993194907794862       -4.211550330788026E-10   0.8284266690149781       -0.13584656030466838     7.47089012766506E-7      -1.3779228118403513
-1.77                     0                        1.499319704159244        -4.200121710281623E-10   0.8270622448009299       -0.1370445599266872      2.510764757352168E-7     -1.3770752801228978
-1.76                     0                        1.499319934763596        -3.3610448255571896E-10  0.8256857713243502       -0.13825013538928202     -8.203861257256464E-7    -1.376217272186536
-1.75                     0                        1.4993201836828924       -5.935085718557517E-10   0.8242972032324928       -0.13946820301798324     1.6405900031052738E-6    -1.3753536371778188
-1.74                     0                        1.4993204531283109       -3.876003663754468E-10   0.822896382019763        -0.14069822463419773     1.0957984168561887E-6    -1.3744836010017163
-1.73                     0                        1.499320743124226        -7.663093853632522E-10   0.82148319240274         -0.14194388482308604     -9.435541652716034E-7    -1.3736106753204238
-1.72                     0                        1.4993210561435326       -3.934262965204912E-10   0.8200574925999056       -0.14319607574382495     -8.158733428337243E-7    -1.3727255416471325
-1.71                     0                        1.499321393447157        -6.934560888924486E-10   0.8186191865500716       -0.1444690042633176      5.421411106123518E-7     -1.3718422637441492
-1.7                      0                        1.499321756004249        -4.3113785118173856E-10  0.8171681100811506       -0.14574772281127388     5.307328482093391E-7     -1.370945648568818
-1.69                     0                        1.499322146664068        -5.162563473385935E-10   0.8157041519051372       -0.14704547501457826     -2.6879221528617485E-6   -1.3700487750917816
-1.68                     0                        1.4993225658582956       -1.8344942528773456E-10  0.8142271761625763       -0.1483517539414635      1.0171260246589285E-6    -1.3691409328970918
-1.67                     0                        1.4993230158945317       -1.0533934668720978E-10  0.812737030546977        -0.14967736917839256     -8.406522924573611E-7    -1.3682327049472522
-1.66                     0                        1.499323499773187        -1.26080555001563E-10    0.8112336259089222       -0.15100538399143648     4.6691731455261446E-7    -1.367307023122894
-1.65                     0                        1.499324017664463        -1.4325699179739028E-10  0.8097167899397009       -0.1523621825932691      2.2538381618720096E-6    -1.3663900132560334
-1.6400000000000001       0                        1.499324573220906        -3.026162251511089E-10   0.808186379781503        -0.15372031371687456     3.210016734865889E-7     -1.3654540126657255
-1.63                     0                        1.4993251679498607       -3.5521747213722965E-10  0.8066423158539641       -0.15510030375576345     -1.2421275661261257E-8   -1.3645194294489726
-1.62                     0                        1.4993258036520236       -5.614759149643553E-10   0.805084358061922        -0.1564912546526691      6.584033178744733E-7     -1.363575006811534
-1.6099999999999999       0                        1.499326481554084        2.0049368735964E-11      0.8035124521103961       -0.15789708683555373     -8.967547465927823E-7    -1.3626245845431286
-1.6                      0                        1.4993272075838606       1.232930156622595E-11    0.8019263851070862       -0.15931631382642555     -4.3383487861365665E-6   -1.3616663614968527
-1.5899999999999999       0                        1.4993279821738097       1.637537067651907E-10    0.800326105622549        -0.16074195062267957     6.029671891403216E-7     -1.3606932756467591
-1.58                     0                        1.4993288068986503       4.2431900989042356E-10   0.7987113981336257       -0.16220158068376062     1.3217329979167829E-6    -1.3597325883038025
-1.57                     0                        1.4993296856626765       5.063399899079379E-10    0.7970820722981634       -0.1636635864086548      -1.573295021488414E-7    -1.358752399314815
-1.56                     0                        1.4993306205549075       2.2124239321298855E-10   0.795438116466727        -0.16513451231884518     3.1225574642784306E-7    -1.3577592370939298
-1.55                     0                        1.4993316144760185       -1.3175386026725277E-10  0.7937792549290081       -0.16663801693005623     1.2675121393081457E-6    -1.356776348760337
-1.54                     0                        1.4993326695344042       -1.9935701845104256E-10  0.7921053552808199       -0.16814191270760634     8.343887798342985E-7     -1.3557713495932957
-1.53                     0                        1.4993337895892305       7.628017158728356E-11    0.7904163532748091       -0.16966664658711159     -2.6833320856281643E-6   -1.3547645928959309
-1.52                     0                        1.499334975857456        4.1847909265597986E-11   0.7887119672788031       -0.17121055261409016     1.2969997858117858E-6    -1.353753991032541
-1.51                     0                        1.4993362321223471       1.0707673306838413E-10   0.7869921320837544       -0.17275950478404542     6.036123930242784E-7     -1.3527253228124343
-1.5                      0                        1.4993375616013362       3.3773533702222345E-10   0.7852566725835414       -0.17433683628769953     -3.7201949318961586E-6   -1.3517016609902854
-1.49                     0                        1.4993389647863946       5.10472556719943E-10     0.7835053702529979       -0.1759236298209876      6.568385805226954E-7     -1.3506637605606984
-1.48                     0                        1.4993404431976336       1.2727261458562454E-9    0.7817381355281676       -0.17752991121578773     -4.5714149615048705E-7   -1.3496215138030823
-1.47                     0                        1.4993420034761005       1.103717019211908E-9     0.7799547551459666       -0.17914668708590345     -3.6097460833031267E-6   -1.3485656122871685
-1.46                     0                        1.4993436446863877       1.2458897829932674E-9    0.7781551305839747       -0.18078585478754058     2.343598618424299E-6     -1.347507804408729
-1.45                     0                        1.4993453698791994       3.587690813960979E-10    0.7763389882342798       -0.18244321577825168     3.2525504702553196E-6    -1.3464434832440213
-1.44                     0                        1.4993471799638698       -2.2939394942283278E-10  0.7745062631250382       -0.18410265405017698     -2.874847936629397E-8    -1.3453564355310579
-1.43                     0                        1.4993490778192582       3.223117557201953E-10    0.7726567524200052       -0.18580270293292572     -1.4097266632410534E-6   -1.3442848921446833
-1.42                     0                        1.4993510600084754       6.29343312147749E-10     0.7707902085069476       -0.18750607967858404     1.15052414290514E-6      -1.3431911958476297
-1.4100000000000001       0                        1.4993531334005161       1.1574722001901287E-9    0.768906596457131        -0.189223098966779       -3.665370331795355E-6    -1.3420856136571044
-1.4                      0                        1.4993552922278315       1.2386682746065783E-9    0.767005623104963        -0.19097192920004447     1.6774038127327384E-7    -1.3409858693709762
-1.3900000000000001       0                        1.4993575367962102       1.1710599494139618E-9    0.7650871549564274       -0.19272492581427794     2.1517270758249916E-6    -1.3398641179041675
-1.38                     0                        1.4993598695537          1.8395435247883172E-9    0.7631510309776213       -0.19450490198924697     -2.0961477737376625E-6   -1.338742932245625
-1.37                     0                        1.499362284259168        2.3413263253375913E-9    0.7611970254411713       -0.19629620530074737     1.7277710379370152E-6    -1.337606316137506
-1.3599999999999999       0                        1.4993647813542859       2.6867500150803277E-9    0.7592250057446555       -0.19811313473420533     -4.964963204418909E-7    -1.3364683694712471
-1.35                     0                        1.4993673522629165       2.263398426984191E-9     0.7572347403751096       -0.19994358122755113     3.220407936101714E-7     -1.3353166289452763
-1.3399999999999999       0                        1.4993699952206614       3.504524881503352E-9     0.7552260693554325       -0.20179366407152166     -7.435509322145505E-7    -1.3341569720714954
-1.33                     0                        1.4993727015892164       2.352015652617767E-9     0.7531987987398656       -0.20366557493679466     -1.9659760279943746E-7   -1.3329912926371394
-1.3199999999999998       0                        1.4993754636014314       5.832728843165386E-9     0.751152730592506        -0.20555274400214626     -1.3454715603270467E-6   -1.331812717669766
-1.31                     0                        1.4993782712483696       3.1504108020573706E-9    0.749087676486315        -0.2074634843828801      2.4599715071656392E-6    -1.3306292697663893
-1.2999999999999998       0                        1.499381109196838        3.9537457632817754E-9    0.7470034072194935       -0.20939036898138733     -3.0901616619584396E-6   -1.329433166271969
-1.29                     0                        1.4993839734679983       6.6117368540988565E-9    0.7448998244769084       -0.2113337846023632      1.9768822408151354E-6    -1.3282246432621647
-1.28                     0                        1.499386835290733        4.084325282195937E-9     0.7427766050506864       -0.2133101006420286      2.310953559955487E-6     -1.327019563816972
-1.27                     0                        1.4993896814890113       3.6992405724813863E-9    0.7406336199694272       -0.21528774312869184     -1.9337954043064848E-6   -1.3257861506747048
-1.26                     0                        1.4993924927168156       7.278908559424512E-9     0.7384706866370443       -0.21730624136100093     9.86259801625225E-7      -1.3245636449960172
-1.25                     0                        1.4993952327659523       6.343393130496617E-9     0.7362874936308693       -0.21933235987399066     8.703714509405208E-7     -1.3233183177693075
-1.24                     0                        1.499397888670608        4.6995102604320215E-9    0.7340839820744678       -0.2213825122670052      -2.0156361991496715E-6   -1.3220664850963748
-1.23                     0                        1.4994004080548802       1.0369362153026272E-8    0.7318597824039048       -0.22345742184563272     5.326691765083609E-7     -1.3208082782210033
-1.22                     0                        1.4994027694236076       2.94962488188381E-9      0.7296148112733639       -0.225544218233372       -2.2685591814874436E-6   -1.3195306868691368
-1.21                     0                        1.4994049197017407       1.1690483485706067E-8    0.7273487777470328       -0.22766381797376273     -1.4065775924975745E-7   -1.3182541536667116
-1.2                      0                        1.499406818738581        5.668118969235107E-9     0.7250614979443007       -0.22979976396233273     -1.1151236860504468E-6   -1.3169619179848269
-1.19                     0                        1.4994083997388248       9.386765166370762E-9     0.7227527364110591       -0.23195464752450773     -1.48040218745449E-6     -1.3156561714334705
-1.18                     0                        1.499409615119208        1.404881410789606E-8     0.7204222837578709       -0.2341415088333974      3.488243606719356E-6     -1.3143496080460875
-1.17                     0                        1.4994103800786356       7.2530221770857315E-9    0.7180698932510957       -0.23633756161323197     1.2261410637408603E-6    -1.3130190131758825
-1.1600000000000001       0                        1.499410639630579        1.1649081793684587E-8    0.7156954026664111       -0.23857076456368245     1.0208410611048409E-6    -1.3116920660563909
-1.15                     0                        1.4994102949261852       1.4335522978709217E-8    0.7132984666377105       -0.24081644117646772     7.124396448223365E-7     -1.3103435054081127
-1.1400000000000001       0                        1.499409259108937        1.1039656750152711E-8    0.7108789351067126       -0.24309305739041595     -2.223132830654624E-6    -1.308991514794922
-1.13                     0                        1.4994074163209352       1.2468272066563816E-8    0.7084365923337483       -0.2453835665887744      3.354433871960595E-7     -1.3076186471271278
-1.12                     0                        1.4994046387460271       2.2981549926069736E-8    0.705971117616132        -0.24771137693452613     8.506416074899809E-7     -1.3062477455088715
-1.1099999999999999       0                        1.4994008268271177       -1.1650139461321067E-9   0.7034823492714944       -0.2500485620240477      -3.888416405713164E-6    -1.3048505781800097
-1.1                      0                        1.4993958046962805       3.208595110945639E-8     0.700970000412179        -0.25242425059264867     1.6786598053076052E-7    -1.30345572842862
-1.0899999999999999       0                        1.499389463907692        -1.2601495101484341E-8   0.6984338256917955       -0.25481781715164603     7.634452996594946E-7     -1.3020421366306656
-1.08                     0                        1.4993815722462323       3.4376134979051065E-8    0.6958736036393338       -0.25723175288382416     -7.8977497503278E-7      -1.3006118107932199
-1.0699999999999998       0                        1.4993719553453082       -2.9556954728470096E-9   0.693289055923907        -0.2596815256843221      1.0397547886846647E-6    -1.2991796930844532
-1.06                     0                        1.4993604742324251       2.2127281854261385E-8    0.6906799368979535       -0.26215159486685574     -6.642896898734673E-7    -1.2977297925969928
-1.0499999999999998       0                        1.4993467481002687       2.9451225254879476E-8    0.688045950877002        -0.26464560932345316     2.3705364040744806E-7    -1.2962650683144434
-1.04                     0                        1.49933062996173         2.9441416254835497E-10   0.6853869676033311       -0.26716559915363314     2.245576057801445E-6     -1.2947872730578953
-1.03                     0                        1.4993117802890468       -1.505634397693439E-8    0.6827025450650063       -0.2697189085113143      -7.877434380956967E-7    -1.293302876760592
-1.02                     0                        1.4992900327210459       5.1753272573700214E-8    0.6799925372018314       -0.27229446360465576     6.343458042849398E-7     -1.2918004969560566
-1.01                     0                        1.4992648517872713       -1.857249691216336E-8    0.6772565914910963       -0.27489449641385544     7.38270637284663E-6      -1.2902814996777066
-1                        0                        1.4992360074362723       1.1817128193818253E-8    0.6744945613761424       -0.27752088518387646     -3.5381031088428646E-6   -1.2887474184189238
-0.99                     0                        1.4992029506659768       3.097604850699069E-8     0.671706018489503        -0.28018974982336664     -4.617635133596831E-6    -1.2872133947229245
-0.98                     0                        1.4991655073310695       1.506351203418408E-8     0.6688907615590187       -0.28286215863774905     5.358272598812725E-7     -1.2856401165394409
-0.97                     0                        1.4991230622839444       2.341498278911178E-8     0.6660484871888324       -0.2855927153994954      3.5944501498624506E-6    -1.2840813631436063
-0.96                     0                        1.4990748608107272       1.4907478569706584E-8    0.6631789035072759       -0.28832552380255216     2.4258642290633713E-6    -1.2824803462703325
-0.95                     0                        1.4990206809273643       1.8767710717034655E-8    0.6602818297652959       -0.29110614049315947     -3.18480605526146E-6     -1.2808822585518993
-0.94                     0                        1.4989597484461084       1.200524776363402E-7     0.6573567288174478       -0.2939140490764675      7.260535312114398E-7     -1.2792653259440256
-0.9299999999999999       0                        1.4988916192277846       -4.1014641110952914E-8   0.6544035215080077       -0.2967392751381405      -4.988591038373061E-7    -1.2776192291196427
-0.9199999999999999       0                        1.498815125620478        1.1837754242115317E-7    0.6514217988903418       -0.299609890740681       -4.248138531515693E-6    -1.2759707360764265
-0.9099999999999999       0                        1.4987299841266124       -2.634309671839422E-8    0.6484112855807832       -0.3024985924652944      2.969696739164925E-6     -1.274292028211298
-0.8999999999999999       0                        1.4986350593292093       -5.033673052988217E-8    0.64537162254462         -0.3054340147673431      -2.5670807331795988E-6   -1.2726105546088877
-0.8899999999999999       0                        1.4985292652730269       -1.2174423736745981E-8   0.6423025867757609       -0.3083780199494491      1.188228095003371E-6     -1.2708872433934946
-0.8799999999999999       0                        1.4984120740004767       -1.1551448571340989E-8   0.6392037847630818       -0.31138424598989656     5.768026578386905E-6     -1.2691749148257003
-0.8699999999999999       0                        1.4982820023309176       8.275603695538026E-8     0.6360748807435405       -0.3143967113907289      2.581864440545629E-7     -1.2674162573435603
-0.8599999999999999       0                        1.4981381241386749       8.790703229087461E-8     0.632915620647728        -0.3174618155107716      -5.436615951655563E-6    -1.265656836166024
-0.8499999999999999       0                        1.497979173139638        -5.395533805804188E-8    0.6297255970499871       -0.32054713790230144     2.290728178472564E-6     -1.263862967076106
-0.8400000000000001       0                        1.49780378140826         -6.199185955689159E-8    0.6265044600158971       -0.323680268915689       -2.738263505376546E-6    -1.2620610181966398
-0.8300000000000001       0                        1.4976102283797452       -3.8319025022912193E-8   0.6232519636995355       -0.3268258966784293      2.9775005067292634E-6    -1.2602144123726153
-0.8200000000000001       0                        1.4973976395419375       -1.0714830344785492E-7   0.6199676527737852       -0.3300398890204318      3.0178404699682055E-6    -1.2583779888762532
-0.81                     0                        1.4971633220451672       -8.7776799607593E-8      0.6166511655553444       -0.3332575546677487      1.753955700207969E-6     -1.2564850622336126
-0.8                      0                        1.4969065601665248       1.6788610885488806E-7    0.613302335583923        -0.33652922404011887     -3.9005298524169965E-6   -1.2545855135411448
-0.79                     0                        1.4966243628779365       2.63277732064049E-7      0.6099205047153888       -0.3398369496667006      1.327826233029493E-6     -1.2526588364425588
-0.78                     0                        1.4963159150802914       -2.2798315815293453E-7   0.6065055218601834       -0.34317549735472325     -1.1130884413443425E-6   -1.2506993622981932
-0.77                     0                        1.4959778003853155       3.352180320358473E-7     0.603056891430678        -0.34655628157182794     -3.241962354461296E-6    -1.2487160035214995
-0.76                     0                        1.4956087493766224       -1.6550701340671425E-7   0.5995743117493466       -0.3499739523664161      2.768280621996569E-6     -1.2467025389202055
-0.75                     0                        1.4952049614154104       -1.9263029656023181E-7   0.5960572926134429       -0.3534298748143516      1.6230496128424238E-6    -1.2446576960178084
-0.74                     0                        1.494764623472704        2.621827594007078E-7     0.5925055708769714       -0.35693188245179486     -1.4758929164636648E-6   -1.2425882490091906
-0.73                     0                        1.4942844950933216       1.3802193000453806E-7    0.5889186001287362       -0.36046226719525015     -8.152227148008221E-7    -1.2404742002396845
-0.72                     0                        1.4937618346840926       -8.005195601276168E-8    0.585296145587878        -0.3640504133014321      -3.2393313251519963E-6   -1.2383434575683085
-0.71                     0                        1.4931920168717812       -1.6393301863959262E-7   0.5816375295792338       -0.3676724075469602      1.4012938270432347E-7    -1.2361689234276965
-0.7                      0                        1.492573626079923        -3.8919070737611876E-8   0.5779426600494549       -0.3713195926604838      5.467592789340416E-6     -1.233941564436775
-0.69                     0                        1.4919015977735317       8.146055410169291E-8     0.5742108186917325       -0.37504840060059225     1.0843484812354116E-6    -1.2317144384656358
-0.6799999999999999       0                        1.4911729363911186       1.1860067164084677E-7    0.5704417035990886       -0.37877461792817707     4.365581464852819E-6     -1.2294018481239821
-0.6699999999999999       0                        1.4903822459153335       6.892285159835967E-7     0.5666348781462471       -0.3825934068870185      -1.050725744956567E-6    -1.2270959691925838
-0.6599999999999999       0                        1.4895262105406362       1.390464347286367E-7     0.5627898019016316       -0.386421842036071       5.4239197362578905E-6    -1.2247120029935237
-0.6499999999999999       0                        1.4885990414100316       5.771925680237526E-7     0.5589061658487083       -0.390320826204223       -3.2723156242547946E-6   -1.2223080089247664
-0.6399999999999999       0                        1.4875957817405847       2.825526981368239E-7     0.5549832875003522       -0.39425477016471244     -4.646421316559841E-7    -1.2198455675867586
-0.6299999999999999       0                        1.4865142904268014       -1.1384242051151703E-7   0.5510209234969907       -0.39824159344065857     9.054511959842579E-7     -1.2173420705431086
-0.6199999999999999       0                        1.4853437251001813       -3.8969243043452834E-8   0.5470183610974743       -0.40227088646267256     4.406659612131344E-7     -1.2147811766333911
-0.6099999999999999       0                        1.484081600413111        8.433588581608133E-7     0.5429753653568519       -0.40635509878098036     -3.5742312700997806E-6   -1.2121748479846708
-0.5999999999999999       0                        1.48272172838751         1.4511486432036959E-6    0.5388911324983175       -0.4104914729258724      2.1591011964125473E-6    -1.2095170643164805
-0.5900000000000001       0                        1.481259482664071        -3.5192171709699144E-7   0.5347654216117035       -0.41467122184686134     -1.2318750962272383E-6   -1.206797573610047
-0.5800000000000001       0                        1.4796844877994515       1.5040645781653054E-6    0.5305975541261533       -0.4189147274833217      -4.354895166792254E-7    -1.2040316975881207
-0.5700000000000001       0                        1.477989924741972        -6.112363746853538E-7    0.5263870524544291       -0.42319782604104644     -3.478634560278582E-7    -1.2011925860833166
-0.56                     0                        1.4761709506428706       2.1245121653811713E-6    0.5221333647721403       -0.42754937800203413     5.037128207001327E-7     -1.1983074834400853
-0.55                     0                        1.474222011679545        -3.2391249703448695E-7   0.5178360021960184       -0.43194392987681773     2.4778043627819213E-6    -1.1953491627543253
-0.54                     0                        1.4721280379718635       5.847675218477921E-7     0.51349426920182         -0.43640745206789133     -1.1248798837596969E-6   -1.1923367630977624
-0.53                     0                        1.4698879887330336       -5.940103459969057E-7    0.5091077890672001       -0.4408951314544126      4.857717192413547E-6     -1.189226555574721
-0.52                     0                        1.4674918204175442       -7.013401610747307E-7    0.5046758143717819       -0.4454998076292347      -1.8959959646543225E-6   -1.1861074371823874
-0.51                     0                        1.464926123275763        2.9297299134576277E-7    0.5001977929146154       -0.45010448380406215     -8.649709123498548E-6    -1.1828572974495626