% Model:              C2noStructPeEpsMin1Eps002.mph
% Version:            COMSOL 5.6.0.280
% Date:               Apr 22 2021, 16:40
% Dimension:          2
% Nodes:              4001
% Expressions:        5
% Description:        Velocity field, x component, Velocity field, y component, Concentration, Gradient of c, x component, Gradient of c, y component
% Length unit:        m
% x                       y                        u (m/s)                  v (m/s)                  u2 (1)                   u2x (1/m)                u2y (1/m)
-1                        -0.5                     0                        0                        1                        1.2773782032127201E-11   0
-0.999                    -0.5                     0                        0                        1.0000000000000102       7.73425767874869E-12     3.552713678800501E-15
-0.998                    -0.5                     0                        0                        1.0000000000000155       2.6894042548519792E-12   0
-0.997                    -0.5                     0                        0                        1.0000000000000158       -2.360778239562933E-12   0
-0.996                    -0.5                     0                        0                        1.0000000000000107       -7.382539024547441E-12   3.552713678800501E-15
-0.995                    -0.5                     0                        0                        1.0000000000000009       -1.2443379659998755E-11  0
-0.994                    -0.5                     0                        0                        0.999999999999986        -1.7484680370216665E-11  1.7763568394002505E-15
-0.993                    -0.5                     0                        0                        0.9999999999999659       -2.2520652009916375E-11  8.881784197001252E-15
-0.992                    -0.5                     0                        0                        0.9999999999999408       -2.7560176363294886E-11  7.105427357601002E-15
-0.991                    -0.5                     0                        0                        0.9999999999999108       -3.26041416087719E-11    1.7763568394002505E-15
-0.99                     -0.5                     0                        0                        0.9999999999998755       -3.764366596215041E-11   8.881784197001252E-15
-0.989                    -0.5                     0                        0                        0.9999999999998352       -4.268763120762742E-11   6.217248937900877E-15
-0.988                    -0.5                     0                        0                        0.9999999999997903       -4.773470507757338E-11   7.105427357601002E-15
-0.987                    -0.5                     0                        0                        0.99999999999974         -5.277112080648294E-11   1.1546319456101628E-14
-0.986                    -0.5                     0                        0                        0.9999999999996847       -5.78075365353925E-11    5.329070518200751E-15
-0.985                    -0.5                     0                        0                        0.9999999999996243       -6.285105769165966E-11   9.325873406851315E-15
-0.984                    -0.5                     0                        0                        0.9999999999995588       -6.788561379700297E-11   1.0325074129013956E-14
-0.983                    -0.5                     0                        0                        0.9999999999994886       -7.293099457683638E-11   7.549516567451064E-15
-0.982                    -0.5                     0                        0                        0.9999999999994131       -7.798872658781875E-11   1.199040866595169E-14
-0.981                    -0.5                     0                        0                        0.9999999999993329       -8.30144841756919E-11    2.042810365310288E-14
-0.98                     -0.5                     0                        0                        0.9999999999992473       -8.806111395642802E-11   1.687538997430238E-14
-0.979                    -0.5                     0                        0                        0.9999999999991563       -9.311040827242323E-11   1.7763568394002505E-14
-0.978                    -0.5                     0                        0                        0.9999999999990608       -9.814282719844414E-11   1.9539925233402755E-14
-0.977                    -0.5                     0                        0                        0.9999999999989603       -1.0318856880076055E-10  1.5987211554602254E-14
-0.976                    -0.5                     0                        0                        0.9999999999988548       -1.0822809315413906E-10  1.2434497875801753E-14
-0.975                    -0.5                     0                        0                        0.9999999999987437       -1.1327827564855397E-10  1.2434497875801753E-14
-0.974                    -0.5                     0                        0                        0.9999999999986279       -1.1830714186089608E-10  1.0658141036401503E-14
-0.973                    -0.5                     0                        0                        0.9999999999985072       -1.23348442571114E-10    3.552713678800501E-15
-0.972                    -0.5                     0                        0                        0.9999999999983809       -1.283950723518501E-10   4.618527782440651E-14
-0.971                    -0.5                     0                        0                        0.9999999999982503       -1.3344170213258622E-10  2.4868995751603507E-14
-0.97                     -0.5                     0                        0                        0.9999999999981144       -1.3846346291757072E-10  1.0658141036401503E-14
-0.969                    -0.5                     0                        0                        0.9999999999979736       -1.4350653998462803E-10  2.4868995751603507E-14
-0.968                    -0.5                     0                        0                        0.9999999999979744       1.8527149750748425E-10   4.9998003094493774E-14
-0.967                    -0.5                     0                        0                        0.9999999999981428       1.5148538360243852E-10   3.45636201307821E-14
-0.966                    -0.5                     0                        0                        0.9999999999982773       1.176744007016412E-10    3.689280556115069E-14
-0.965                    -0.5                     0                        0                        0.999999999998378        8.387407594188025E-11    4.988013202792079E-14
-0.964                    -0.5                     0                        0                        0.9999999999984452       5.008085660947696E-11    4.865660377948888E-14
-0.963                    -0.5                     0                        0                        0.9999999999984783       1.6276979136037234E-11   4.032764817337821E-14
-0.962                    -0.5                     0                        0                        0.9999999999984777       -1.7521569266884298E-11  3.910411992490742E-14
-0.961                    -0.5                     0                        0                        0.9999999999984434       -5.130057774457243E-11   9.458882246071502E-15
-0.96                     -0.5                     0                        0                        0.9999999999983751       -8.511688971588795E-11   3.3104349749204216E-14
-0.959                    -0.5                     0                        0                        0.9999999999982728       -1.1891543811880948E-10  2.4775394143132427E-14
-0.958                    -0.5                     0                        0                        0.9999999999981374       -1.52713986521731E-10    2.355186589470052E-14
-0.957                    -0.5                     0                        0                        0.9999999999979672       -1.8652674577936774E-10  2.5881051325010787E-14
-0.956                    -0.5                     0                        0                        0.9999999999977643       -2.203124155952036E-10   2.5545701496279006E-14
-0.955                    -0.5                     0                        0                        0.999999999997527        -2.541158489794334E-10   2.1657637988766168E-14
-0.954                    -0.5                     0                        0                        0.999999999997256        -2.879195044082683E-10   1.7769574481117233E-14
-0.953                    -0.5                     0                        0                        0.999999999996951        -3.217214389914149E-10   6.998128220857945E-15
-0.952                    -0.5                     0                        0                        0.9999999999966125       -3.5551615712490143E-10  2.0873633107398647E-14
-0.951                    -0.5                     0                        0                        0.9999999999962401       -3.893198125537363E-10   1.7207614204674743E-14
-0.95                     -0.5                     0                        0                        0.9999999999958338       -4.2311258779692977E-10  1.2875461487311839E-14
-0.949                    -0.5                     0                        0                        0.9999999999953937       -4.5692001798404824E-10  8.987397979779557E-15
-0.948                    -0.5                     0                        0                        0.9999999999949201       -4.907243395466978E-10   1.2204761829731625E-14
-0.947                    -0.5                     0                        0                        0.9999999999944124       -5.245095652733238E-10   4.7639846433988424E-15
-0.946                    -0.5                     0                        0                        0.9999999999938709       -5.583169954604424E-10   5.3168132344060705E-15
-0.945                    -0.5                     0                        0                        0.9999999999932958       -5.921199847554624E-10   -3.0121423717434903E-15
-0.944                    -0.5                     0                        0                        0.9999999999926866       -6.259203095152233E-10   1.093399898025355E-15
-0.943                    -0.5                     0                        0                        0.999999999992044        -6.597135288476267E-10   -1.301283504065512E-16
-0.942                    -0.5                     0                        0                        0.9999999999913676       -6.93524511748424E-10    -3.1300134383164765E-15
-0.941                    -0.5                     0                        0                        0.9999999999906568       -7.273177310808273E-10   -4.353541686748383E-15
-0.94                     -0.5                     0                        0                        0.9999999999899124       -7.61121608554267E-10    -5.57706993510252E-15
-0.9390000000000001       -0.5                     0                        0                        0.9999999999891345       -7.949166042435073E-10   -1.0353311858446495E-14
-0.938                    -0.5                     0                        0                        0.9999999999883227       -8.287204817169495E-10   -1.157684011092237E-14
-0.937                    -0.5                     0                        0                        0.9999999999874769       -8.625083719788323E-10   -9.247654676743111E-15
-0.9359999999999999       -0.5                     0                        0                        0.999999999986926        -5.389778409132574E-10   -1.42428302352534E-14
-0.935                    -0.5                     0                        0                        0.9999999999863445       -6.244873562215045E-10   -1.456367542551264E-14
-0.9339999999999999       -0.5                     0                        0                        0.999999999985677        -7.099933188160776E-10   -1.1331806944903582E-14
-0.933                    -0.5                     0                        0                        0.9999999999849244       -7.955063868380035E-10   -1.8758079492763822E-14
-0.9319999999999999       -0.5                     0                        0                        0.9999999999840862       -8.810176785030949E-10   -1.5526211012154764E-14
-0.931                    -0.5                     0                        0                        0.9999999999831624       -9.665254174545027E-10   -2.650519723889327E-14
-0.9299999999999999       -0.5                     0                        0                        0.999999999982153        -1.0520313800490759E-9   -1.7944258240122347E-14
-0.929                    -0.5                     0                        0                        0.9999999999810582       -1.1375337899299653E-9   -1.8265103430381585E-14
-0.9279999999999999       -0.5                     0                        0                        0.9999999999798779       -1.2230539633792538E-9   -2.036230546797328E-14
-0.927                    -0.5                     0                        0                        0.9999999999786119       -1.3085537087248841E-9   -2.0683150658349167E-14
-0.926                    -0.5                     0                        0                        0.9999999999772609       -1.3940578949626154E-9   -1.6563103754054438E-14
-0.925                    -0.5                     0                        0                        0.9999999999758237       -1.479570074806124E-9    -2.6653911564981156E-14
-0.924                    -0.5                     0                        0                        0.9999999999743017       -1.565078257846744E-9    -1.898115098202202E-14
-0.923                    -0.5                     0                        0                        0.9999999999726938       -1.6505899936010428E-9   -1.885790696638758E-14
-0.922                    -0.5                     0                        0                        0.9999999999710005       -1.736094623927984E-9    -1.8734662950757995E-14
-0.921                    -0.5                     0                        0                        0.9999999999692213       -1.8216062625377682E-9   -2.5411534960959927E-14
-0.92                     -0.5                     0                        0                        0.9999999999673573       -1.907114320678298E-9    -2.5149513067249772E-14
-0.919                    -0.5                     0                        0                        0.9999999999654074       -1.992619173049844E-9    -2.1029466163095996E-14
-0.918                    -0.5                     0                        0                        0.9999999999633717       -2.078144675569648E-9    -2.4458935826271775E-14
-0.917                    -0.5                     0                        0                        0.9999999999612511       -2.1636293218821463E-9   -1.6786175243254314E-14
-0.916                    -0.5                     0                        0                        0.9999999999590446       -2.249145942617753E-9    -2.7765161473861714E-14
-0.915                    -0.5                     0                        0                        0.9999999999567527       -2.3346447997849665E-9   -2.9862363507487305E-14
-0.914                    -0.5                     0                        0                        0.999999999954375        -2.420168525947931E-9    -1.774871082598866E-14
-0.913                    -0.5                     0                        0                        0.9999999999519124       -2.5056700476504035E-9   -2.517498337777612E-14
-0.912                    -0.5                     0                        0                        0.999999999949364        -2.5911777866018134E-9   -5.214118116308298E-14
-0.911                    -0.5                     0                        0                        0.9999999999467301       -2.6766837491963844E-9   -5.423838319666969E-14
-0.91                     -0.5                     0                        0                        0.9999999999440105       -2.762198593575152E-9    -3.67956599969703E-14
-0.909                    -0.5                     0                        0                        0.9999999999412056       -2.8476903453150076E-9   -4.777464622759714E-14
-0.908                    -0.5                     0                        0                        0.9999999999383155       -2.933199860623257E-9    -5.462927276294235E-15
-0.907                    -0.5                     0                        0                        0.9999999999353392       -3.0187271394999007E-9   -2.354734086452208E-14
-0.906                    -0.5                     0                        0                        0.999999999932278        -3.1042295493807924E-9   -2.0315472380024688E-14
-0.905                    -0.5                     0                        0                        0.9999999999305218       1.4416925039044678E-9    -4.1411773119426725E-14
-0.904                    -0.5                     0                        0                        0.9999999999317226       9.59791863365619E-10     -1.9871892657692918E-14
-0.903                    -0.5                     0                        0                        0.9999999999324416       4.778894464699308E-10    1.6679878055461246E-15
-0.902                    -0.5                     0                        0                        0.9999999999326782       -4.020075853114409E-12   -2.2977409555621345E-14
-0.901                    -0.5                     0                        0                        0.9999999999324333       -4.859224927488027E-10   -2.2753811165185308E-14
-0.9                      -0.5                     0                        0                        0.9999999999317063       -9.678444495697244E-10   5.8914966541495024E-15
-0.899                    -0.5                     0                        0                        0.9999999999304976       -1.449748642822252E-9    -8.095759670616465E-15
-0.898                    -0.5                     0                        0                        0.9999999999288068       -1.931649283361101E-9    -4.3194476021325435E-15
-0.897                    -0.5                     0                        0                        0.9999999999266345       -2.4135623583978254E-9   -2.0083060767051378E-14
-0.896                    -0.5                     0                        0                        0.9999999999239799       -2.895459446222996E-9    -3.195371439652022E-16
-0.895                    -0.5                     0                        0                        0.9999999999208432       -3.377372521259719E-9    -5.425009270977301E-15
-0.894                    -0.5                     0                        0                        0.9999999999172251       -3.859282043582765E-9    -1.64869720249338E-15
-0.893                    -0.5                     0                        0                        0.9999999999131249       -4.341183128210824E-9    -6.754169331010711E-15
-0.892                    -0.5                     0                        0                        0.9999999999085428       -4.823098423693598E-9    -2.0896788424503565E-15
-0.891                    -0.5                     0                        0                        0.9999999999034789       -5.3049870738237796E-9   3.0189008567126766E-15
-0.89                     -0.5                     0                        0                        0.9999999998979326       -5.7869023137954025E-9   4.241699968699853E-15
-0.889                    -0.5                     0                        0                        0.9999999998919049       -6.268799901220934E-9    5.686543685565023E-15
-0.888                    -0.5                     0                        0                        0.9999999998853951       -6.750708313320955E-9    3.689696026139245E-15
-0.887                    -0.5                     0                        0                        0.9999999998784035       -7.232616725420976E-9    8.798275724173354E-15
-0.886                    -0.5                     0                        0                        0.9999999998709299       -7.714520918673502E-9    2.056819357259256E-14
-0.885                    -0.5                     0                        0                        0.9999999998629745       -8.196433105531809E-9    1.8127256700917757E-14
-0.884                    -0.5                     0                        0                        0.9999999998545372       -8.678333746070657E-9    2.0127211930001427E-14
-0.883                    -0.5                     0                        0                        0.9999999998456178       -9.160241492036864E-9    1.6798096640884345E-14
-0.882                    -0.5                     0                        0                        0.9999999998362163       -9.64215101435991E-9     1.5245338191167514E-14
-0.881                    -0.5                     0                        0                        0.9999999998263335       -1.0124054319434017E-8   1.724529342326165E-14
-0.88                     -0.5                     0                        0                        0.9999999998159685       -1.0605951407259185E-8   2.102160549400342E-14
-0.879                    -0.5                     0                        0                        0.9999999998051216       -1.1087873364080108E-8   1.7692490203381106E-14
-0.878                    -0.5                     0                        0                        0.9999999997937926       -1.1569763346477918E-8   2.1468802274122876E-14
-0.877                    -0.5                     0                        0                        0.999999999781982        -1.2051681750585162E-8   2.524511434034895E-14
-0.876                    -0.5                     0                        0                        0.9999999997696895       -1.2533596601978727E-8   2.1915999050479254E-14
-0.875                    -0.5                     0                        0                        0.9999999997569149       -1.3015490137090218E-8   2.5692311119715792E-14
-0.874                    -0.5                     0                        0                        0.9999999997436584       -1.3497399659413263E-8   2.94686231874471E-14
-0.873                    -0.5                     0                        0                        0.999999999732273        -1.0875119578156597E-8   2.882061513124081E-14
-0.872                    -0.5                     0                        0                        0.9999999997209861       -1.1699573985698268E-8   3.43442747926607E-14
-0.871                    -0.5                     0                        0                        0.9999999997088741       -1.2524040827737813E-8   3.276250709647958E-14
-0.87                     -0.5                     0                        0                        0.9999999996959379       -1.3348488129852126E-8   2.76280257230032E-14
-0.869                    -0.5                     0                        0                        0.9999999996821769       -1.4172954971891673E-8   2.9598971705622584E-14
-0.868                    -0.5                     0                        0                        0.9999999996675919       -1.499741470850386E-8    3.8675345044337736E-14
-0.867                    -0.5                     0                        0                        0.9999999996521823       -1.5821872668759213E-8   3.886993418529902E-14
-0.866                    -0.5                     0                        0                        0.999999999635948        -1.6646335958085078E-8   3.551180965272812E-14
-0.865                    -0.5                     0                        0                        0.9999999996188896       -1.7470791253805168E-8   4.103546931490062E-14
-0.864                    -0.5                     0                        0                        0.9999999996010068       -1.8295251878595774E-8   4.3006415298272625E-14
-0.863                    -0.5                     0                        0                        0.999999999582299        -1.9119712503386383E-8   3.964829076269126E-14
-0.862                    -0.5                     0                        0                        0.9999999995627673       -1.994417401635541E-8    3.451380938846226E-14
-0.861                    -0.5                     0                        0                        0.9999999995424108       -2.0768627535718662E-8   4.092564746995858E-14
-0.86                     -0.5                     0                        0                        0.9999999995212301       -2.159308860459848E-8    3.268254162659099E-14
-0.859                    -0.5                     0                        0                        0.9999999994992247       -2.24175498955229E-8     3.887233510344451E-14
-0.858                    -0.5                     0                        0                        0.9999999994763948       -2.324200038952841E-8    4.5103761943539196E-14
-0.857                    -0.5                     0                        0                        0.9999999994527404       -2.4066463262520644E-8   4.769920837919774E-14
-0.856                    -0.5                     0                        0                        0.9999999994282619       -2.4890913784281725E-8   5.0336288177156686E-14
-0.855                    -0.5                     0                        0                        0.9999999994029588       -2.571538551130258E-8    5.98567507277916E-14
-0.854                    -0.5                     0                        0                        0.999999999376831        -2.6539850132896078E-8   4.850502041528542E-14
-0.853                    -0.5                     0                        0                        0.999999999349879        -2.7364307204973008E-8   5.402868007745792E-14
-0.852                    -0.5                     0                        0                        0.9999999993221025       -2.818876161251468E-8    5.067055554262917E-14
-0.851                    -0.5                     0                        0                        0.9999999992935015       -2.9013225790018963E-8   5.2641501525248555E-14
-0.85                     -0.5                     0                        0                        0.9999999992640759       -2.983769263205851E-8    6.527058854502206E-14
-0.849                    -0.5                     0                        0                        0.9999999992338262       -3.066213726963756E-8    5.835975033139282E-14
-0.848                    -0.5                     0                        0                        0.9999999992027517       -3.148660411167711E-8    5.322526895716381E-14
-0.847                    -0.5                     0                        0                        0.9999999991708529       -3.231105851921878E-8    5.5196214941288435E-14
-0.846                    -0.5                     0                        0                        0.9999999991381299       -3.313551647947413E-8    4.6509019887506316E-14
-0.845                    -0.5                     0                        0                        0.9999999991045818       -3.395996733430212E-8    5.55853932277267E-14
-0.844                    -0.5                     0                        0                        0.9999999990702098       -3.478443417634167E-8    5.045091185425032E-14
-0.843                    -0.5                     0                        0                        0.9999999990350132       -3.5608893912953856E-8   7.018542623087222E-14
-0.842                    -0.5                     0                        0                        0.9999999990052644       2.2684257252181743E-9    -1.4763443942167828E-12
-0.841                    -0.5                     0                        0                        0.9999999990054647       -1.86841315162327E-9     -1.3400242743936728E-12
-0.84                     -0.5                     0                        0                        0.9999999990015277       -6.005275121103619E-9    -1.1859405861765601E-12
-0.839                    -0.5                     0                        0                        0.9999999989934537       -1.0142147748725013E-8   -1.0780421757838542E-12
-0.838                    -0.5                     0                        0                        0.999999998981243        -1.4278988401923287E-8   -9.488274833183452E-13
-0.837                    -0.5                     0                        0                        0.9999999989648958       -1.8415862805901514E-8   -8.125073634952351E-13
-0.836                    -0.5                     0                        0                        0.9999999989444117       -2.2552730104452388E-8   -6.761872436639347E-13
-0.835                    -0.5                     0                        0                        0.9999999989197905       -2.6689572534007493E-8   -5.398671238326344E-13
-0.834                    -0.5                     0                        0                        0.9999999988910323       -3.082643716802311E-8    -4.284159997693181E-13
-0.833                    -0.5                     0                        0                        0.9999999988581376       -3.496330713110924E-8    -2.707795978734051E-13
-0.832                    -0.5                     0                        0                        0.9999999988211057       -3.910015311337805E-8    -1.4689397593428714E-13