% Model:              C2DNSEps01Pe1.mph
% Version:            COMSOL 5.6.0.280
% Date:               Apr 22 2021, 17:05
% Dimension:          2
% Nodes:              10201
% Expressions:        5
% Description:        Velocity field, x component, Velocity field, y component, , , 
% Length unit:        m
% x                       y                        u (m/s)                  v (m/s)                  u2                       u2x                      u2y
-1                        -2                       1                        0                        0                        -2.0130803177781278E-10  0
-0.97                     -2                       0.9359660766004066       -0.13605656724426318     8.650404364157396E-11    6.023912031688512E-9     3.6131497764093263E-9
-0.94                     -2                       0.9017006541801705       -0.20822778049980922     3.8501155664995137E-10   2.234847491644279E-8     2.0785511407884393E-8
-0.91                     -2                       0.8793216684634765       -0.27734567680714306     1.4181712028152822E-9    6.866767860556663E-8     8.682740035308025E-8
-0.88                     -2                       0.8642085624298095       -0.3410462912233407      5.138298886468999E-9     1.4999351806435715E-7    2.8342376811018664E-7
-0.85                     -2                       0.8546188088743263       -0.4004095756462103      1.7762670126942226E-8    6.916312313005236E-7     7.346097217090932E-7
-0.8200000000000001       -2                       0.8497015065612041       -0.45587741890870825     5.202617361219275E-8     2.0449260118267174E-6    2.505587964302816E-6
-0.79                     -2                       0.8486350507151009       -0.5076125569345847      1.4292182903912424E-7    5.287807642293097E-6     7.585084270319954E-6
-0.76                     -2                       0.8507918878701493       -0.5555476510609835      3.7999345297045685E-7    1.1758678719813631E-5    2.0323928642120404E-5
-0.73                     -2                       0.855660873216855        -0.5996378320416891      1.0041776477378656E-6    2.164801073559446E-5     4.803430440159495E-5
-0.7                      -2                       0.8628295929518774       -0.6397463586064276      2.4080463591031582E-6    7.194323668875833E-5     1.0894490889715226E-4
-0.67                     -2                       0.8719216392836143       -0.6759895137115571      5.421917016154047E-6     1.5459015941471493E-4    2.6489314003843765E-4
-0.64                     -2                       0.8825977647127256       -0.7083670964571384      1.1715772420711431E-5    3.010405992921691E-4     5.898244410617473E-4
-0.61                     -2                       0.8945564840584408       -0.736889557726982       2.4588341239319156E-5    5.313487230038926E-4     0.0012086359513557182
-0.5800000000000001       -2                       0.9075255998212151       -0.7615561224587607      4.962487299166821E-5     0.0011377533938193832    0.0021701560041770913
-0.55                     -2                       0.9212669365783507       -0.7823973127257577      9.374235108048331E-5     0.0020385202134418808    0.00435680952169455
-0.52                     -2                       0.9355517600277334       -0.7995262978140488      1.7029260658518408E-4    0.00339608713476226      0.00818089874542035
-0.49                     -2                       0.9501639948527029       -0.8130141893027832      2.9941992455825584E-4    0.005289840766775946     0.014460412329031561
-0.45999999999999996      -2                       0.9649032164783875       -0.822947817313051       5.113754907707371E-4     0.007753932995690937     0.024229794877234142
-0.43000000000000005      -2                       0.9795788350755628       -0.8293770061454476      8.317755785945989E-4     0.013606072859233268     0.037655710717912315
-0.4                      -2                       0.994030136172196        -0.8324535930689724      0.0013033478133972216    0.01950912892587518      0.060832186775358586
-0.37                     -2                       1.0080946201519125       -0.8323125014869136      0.001982908219205302     0.026593083067765776     0.09389645572035804
-0.3400000000000001       -2                       1.0216200007425447       -0.8290905094838756      0.0029363362180814577    0.034653689610380296     0.13924877394186333
-0.31000000000000005      -2                       1.0344621889710501       -0.8229245911969367      0.004220517452871973     0.05095839270898716      0.18947480958276888
-0.28                     -2                       1.0464916614266093       -0.8139508851985631      0.005847758507915893     0.06394211317301471      0.26951877589098466
-0.25                     -2                       1.0576044035538885       -0.802368675801743       0.00790755667322196      0.07712400902805178      0.3704116665855638
-0.21999999999999997      -2                       1.067694828079071        -0.7883564063951914      0.010454939992480197     0.08978680237665056      0.4938902439338359
-0.19000000000000006      -2                       1.0766711693765394       -0.772101088685715       0.013531812393092474     0.10126755583726696      0.6409142587078063
-0.16000000000000003      -2                       1.0844424383601927       -0.7537773392488567      0.01703052859182882      0.13198019074515577      0.7857893888201537
-0.13                     -2                       1.0909561457746662       -0.7335905883760152      0.020971821251148628     0.14314674993489834      0.9829576248238027
-0.10000000000000009      -2                       1.0961657205867572       -0.7117494877622914      0.02537415180743497      0.15092961567444224      1.2031007150595792
-0.07000000000000006      -2                       1.100033654250085        -0.6884606908275398      0.03019788773410737      0.15595037389001032      1.4435902808898926
-0.040000000000000036     -2                       1.1025336966164292       -0.6639257961999919      0.03529395998838775      0.1837877763953484       1.6615965336361707
-0.010000000000000009     -2                       1.10364693845399         -0.6383498068533259      0.040473593349878684     0.18997417639313155      1.9295081093840771
0.020000000000000018      -2                       1.103396879780637        -0.6119232417043344      0.04571272964363653      0.17523057481544546      2.1986556013619896
0.050000000000000044      -2                       1.1017980146089132       -0.5848526280232594      0.05105438269859512      0.16892659942061813      2.4322773972508105
0.08000000000000007       -2                       1.0988837676749117       -0.5573159117628205      0.05634693286169701      0.1510242471914936       2.704861657331036
0.10999999999999988       -2                       1.0946813638417576       -0.5295127892512326      0.061211042648782105     0.17324973861418222      2.926512094030925
0.1399999999999999        -2                       1.089252904196202        -0.5015940579377431      0.0657843662409649       0.15276242214834598      3.16408822000834
0.16999999999999993       -2                       1.082663090101698        -0.4737178778140502      0.07003775768247367      0.13012314612611978      3.3830485353499054
0.19999999999999996       -2                       1.074981770198347        -0.4460302050970036      0.07391993873458752      0.10651375808436249      3.5811972967216823
0.22999999999999998       -2                       1.0662809518763303       -0.41867300055100654     0.07728235463974896      0.11764730225973252      3.7461756121459673
0.26                      -2                       1.0566330451324715       -0.3917732013520284      0.0799818094233999       0.09114775286076669      3.8942606761458696
0.29000000000000004       -2                       1.046129839263539        -0.36541695859847706     0.08222483173031152      0.0656643452517194       4.014970677236597
0.31999999999999984       -2                       1.0348576742527185       -0.33969883806076034     0.08399074223808742      0.041830625180965225     4.108620851785135
0.34999999999999987       -2                       1.0229037235676512       -0.3146994773666987      0.08526805486801133      0.020025482369895396     4.1758113702045545
0.3799999999999999        -2                       1.0103462443992914       -0.2905096658882936      0.08589354335475667      0.021673750079797705     4.230100833424619
0.4099999999999999        -2                       0.9972722508614195       -0.2671589203167335      0.0860739972121143       7.346708652505732E-4     4.244533450917929
0.43999999999999995       -2                       0.9837657109377955       -0.24468815603191094     0.08585089254694886      -0.017484346510441347    4.236487200914794
0.47                      -2                       0.9699064481425993       -0.22313090329005522     0.08524334885221999      -0.03304577945097502     4.207954311872302
0.5                       -2                       0.9557687854772637       -0.20252099583793062     0.08423169942582405      -0.03439751564208828     4.186341746500585
0.53                      -2                       0.9414204906672471       -0.1828719183538818      0.08286908702090924      -0.04777440749615459     4.118788689697359
0.56                      -2                       0.9269297519522766       -0.16417600888176123     0.08125253449231952      -0.05858241870878753     4.037600244236415
0.5899999999999999        -2                       0.9123592889789603       -0.14643299760038703     0.0794104082167557       -0.06709781063999601     3.9448246289950366
0.6199999999999999        -2                       0.8977665940672973       -0.12963617056561158     0.07737297798840018      -0.06873087125037251     3.8701092168415925
0.6499999999999999        -2                       0.8832030916732512       -0.11378900813736385     0.0751452327494867       -0.07496488687123665     3.7556592068750136
0.6799999999999999        -2                       0.8687142061279838       -0.09885590268085111     0.07280920104627593      -0.07935856986668527     3.6359965862593766
0.71                      -2                       0.8543433613299881       -0.08481658880479895     0.0703896337757788       -0.08220395412334862     3.5125581797541265
0.74                      -2                       0.8401290323396826       -0.07164722036902024     0.06791139147701175      -0.08376119078553265     3.3866160980023863
0.77                      -2                       0.8261061846711796       -0.059327623675606414    0.06539681214724725      -0.08387743119876523     3.279415510907377
0.7999999999999998        -2                       0.8123025013678462       -0.04782679965973479     0.06287580688498551      -0.0839281818632189      3.14964606208213
0.8299999999999998        -2                       0.7987430948065869       -0.03711058397057735     0.06036850300604015      -0.08313781541520995     3.021254931496056
0.8599999999999999        -2                       0.7854504305381784       -0.027148094799779275    0.05789038019571758      -0.08168577486348662     2.8948671583576813
0.8899999999999999        -2                       0.7724438683423045       -0.017908552909533956    0.05545668567903363      -0.08056052624877734     2.7852647241620594
0.9199999999999999        -2                       0.7597404307199498       -0.009363988851631432    0.05308562594119287      -0.07826723237773922     2.663390405324883
0.95                      -2                       0.7473501912736983       -0.0014780067765742808   0.05078090873948879      -0.07563648566649268     2.5454823017934762
0.98                      -2                       0.7352836928837182       0.005781250821836788     0.048549835129704656     -0.07276851171559429     2.4317092998041243
1.0099999999999998        -2                       0.723548908917505        0.01244536750455936      0.04639834297800118      -0.06974271374946689     2.3222018826016986
1.04                      -2                       0.7121538349216568       0.018543699816288766     0.04433765194637216      -0.06763668835913238     2.225470546213698
1.0699999999999998        -2                       0.7011005509045772       0.024106531782711004     0.042365592918244266     -0.06440283486896269     2.124965732387209
1.1                       -2                       0.6903906008193221       0.029163891680527472     0.040481496439984346     -0.0611688641545687      2.0291323870034095
1.13                      -2                       0.6800247023771803       0.03374456595272014      0.038686170378980304     -0.05796854972551123     1.9378871492960876
1.1600000000000001        -2                       0.6700030452607223       0.03787651400107081      0.03698184693942933      -0.055653012911220864    1.8556852227280387
1.19                      -2                       0.6603248009223158       0.04158561246909051      0.03536938196902284      -0.052516771732694575    1.7739696522805308
1.2199999999999998        -2                       0.6509851832498882       0.044897014716735066     0.033842003556589395     -0.049486361309199194    1.6966030759979907
1.25                      -2                       0.6419804052832646       0.04783565619594222      0.03239784887194225      -0.04657048704283802     1.6234205167451377
1.2799999999999998        -2                       0.6333058123657964       0.05042541107526906      0.031034613540933707     -0.04377455496767325     1.5542637069431864
1.31                      -2                       0.6249583987148294       0.05269014622069832      0.029753641558974833     -0.041623577162917626    1.491636379960094
1.3399999999999999        -2                       0.6169305628858627       0.054649167578088666     0.028547587291313188     -0.039035361156057546    1.4308613749351413
1.37                      -2                       0.609215695883781        0.0563231667588691       0.027413017002769588     -0.0365801666417918      1.3735913791518357
1.4                       -2                       0.6018069905661143       0.057732014671320143     0.026346877757583095     -0.03425457025170909     1.31966281668995
1.4299999999999997        -2                       0.5946982883868441       0.058895620500783716     0.025347338549528843     -0.0323813769519084      1.2699052302433513
1.46                      -2                       0.5878826980897737       0.05983088138502579      0.024410949332841436     -0.030283721731166682    1.2229917180347816
1.4899999999999998        -2                       0.5813516100156816       0.06055329762377812      0.02353300946611115      -0.02830826404809768     1.178877120869068
1.52                      -2                       0.5750972317726173       0.06107906598123104      0.022710502918354733     -0.0264488275429978      1.137419823920652
1.5499999999999998        -2                       0.5691117143353353       0.061423596448396324     0.02194052622472825      -0.02488295203210111     1.0984421260567878
1.58                      -2                       0.5633888798936869       0.06160317790470211      0.021221462603182174     -0.023233354461494982    1.0626383323920634
1.6099999999999999        -2                       0.5579194433660779       0.06162815867155308      0.020548869441240125     -0.021684898863349216    1.0290104120982506
1.6399999999999997        -2                       0.5526953728467223       0.061511523899793315     0.019920106071146        -0.020231448478407976    0.9974459117900001
1.67                      -2                       0.5477086554084176       0.06126547058126264      0.019332627629389122     -0.01886731674226945     0.9678382222516437
1.6999999999999997        -2                       0.5429522387606229       0.06090299221075266      0.01878444814965974      -0.017677981906356166    0.9401067788772668
1.73                      -2                       0.5384183998938408       0.06043335289117435      0.018272972459672836     -0.016481056032615855    0.9146709959488265
1.7599999999999998        -2                       0.5340988896392067       0.059865628166735        0.017795721991823568     -0.015358297720097275    0.8908185399983489
1.79                      -2                       0.5299860023430524       0.05920941168312195      0.017350631050559624     -0.014305029246214527    0.8684682701077044
1.8199999999999998        -2                       0.5260723607872926       0.058474174088949886     0.016935797286871376     -0.013350554999668949    0.8471736705396293
1.85                      -2                       0.5223515239427333       0.05766931632607122      0.016549524297645602     -0.012431004819262985    0.8280747841247292
1.88                      -2                       0.5188155867311759       0.05680029945330538      0.016189843237567506     -0.011567910584265088    0.810185713221362
1.9099999999999997        -2                       0.5154573777535149       0.0558745597005796       0.01585512391322661      -0.010757708207102364    0.793446056611964
1.94                      -2                       0.5122698933727612       0.05489901203155145      0.015543832583692713     -0.009997102628141748    0.7777979063249812
1.9699999999999998        -2                       0.5092470392967325       0.05388174519164946      0.015254533628803647     -0.009289494364462459    0.7630062875478203
2                         -2                       0.5063821305137381       0.05282694078298884      0.01498588620673759      -0.008626469913837892    0.7497179455755517
-1                        -1.97                    1                        -5.969273188329653E-16   7.015532250236225E-27    2.168757746926793E-9     -1.7778258234136027E-25
-0.97                     -1.97                    0.9846715191206181       -0.09311889267528708     1.757723719048892E-10    1.0431917914584542E-8    4.1795370820019575E-9
-0.94                     -1.97                    0.9571334190812127       -0.18033251182093893     9.472553020458963E-10    4.3168190388685454E-8    1.669740495184523E-8
-0.91                     -1.97                    0.9341219698073282       -0.2575991645717082      3.6255603063759786E-9    1.5748891213638304E-7    7.256700879413184E-8
-0.88                     -1.97                    0.9170412222153154       -0.3274317537562068      1.2300964268531236E-8    5.237707710982487E-7     2.477487983458324E-7
-0.85                     -1.97                    0.9051963566342134       -0.39180221362073514     3.843041890508514E-8     1.5481805438525767E-6    7.236145048112991E-7
-0.8200000000000001       -1.97                    0.8976259405082939       -0.4514560401087977      1.1426947545711191E-7    3.908996771521713E-6     1.7054674169610152E-6
-0.79                     -1.97                    0.8936540519626912       -0.5066323611416845      3.2938228034221165E-7    1.0431856887484924E-5    5.563687690750665E-6
-0.76                     -1.97                    0.8927160724915794       -0.5574474169872794      8.782352962837377E-7     2.8121175608534676E-5    1.5231006427292028E-5
-0.73                     -1.97                    0.8943605348338668       -0.6039400460094895      2.1921431307775078E-6    6.829174268807177E-5     3.725817101401057E-5
-0.7                      -1.97                    0.8981913930996057       -0.6461600627589162      5.204274271414632E-6     1.497556510961628E-4     8.098385246066866E-5
-0.67                     -1.97                    0.9038639881323997       -0.6841464387262234      1.190687623673837E-5     2.974864393728497E-4     1.5442879947158653E-4
-0.64                     -1.97                    0.9110913089486538       -0.7179454351526726      2.5949962006098153E-5    6.387192785844684E-4     4.0436672820485934E-4
-0.61                     -1.97                    0.9195873950964628       -0.7475976292918197      5.367055606968177E-5     0.0012776067374665496    8.306392259871543E-4
-0.5800000000000001       -1.97                    0.9291086414525227       -0.7731574991270311      1.0592263838778665E-4    0.0023731437213543815    0.0015710299833179267
-0.55                     -1.97                    0.9394223913890867       -0.7946944616583828      2.0076805525593482E-4    0.0041278614542929895    0.002745440089503718
-0.52                     -1.97                    0.9503218218731252       -0.8122902726518921      3.6564618807604754E-4    0.0075171590460138965    0.004842673353970546
-0.49                     -1.97                    0.9616028700556019       -0.8260356451885293      6.406802390005459E-4     0.011471686536418906     0.00912047542087178
-0.45999999999999996      -1.97                    0.9730918744885902       -0.8360241106461057      0.001078512266470575     0.01814561595014549      0.014928017765879124
-0.43000000000000005      -1.97                    0.9846144073039487       -0.8423707962248883      0.0017506058573470782    0.027361538394553315     0.023120507116196
-0.4                      -1.97                    0.9960079127413449       -0.8452037254261308      0.002746067965174706     0.039643881879693706     0.03411655358716751
-0.37                     -1.97                    1.007127262517339        -0.8446633197532447      0.004164421426630429     0.0549130155506877       0.05513957981302258
-0.3400000000000001       -1.97                    1.017829956695542        -0.840888528792933       0.006131497007251209     0.0753269358278006       0.07936686198501737
-0.31000000000000005      -1.97                    1.0279928541583063       -0.8340382432105997      0.008758353961675099     0.09973706632100628      0.10985610752039605
-0.28                     -1.97                    1.0374960379939047       -0.8242866041791006      0.012158880537810132     0.1281385101788191       0.14708804407371961
-0.25                     -1.97                    1.0462331434511996       -0.8118194915437028      0.016418166191003804     0.17036591267879433      0.19696230126655823
-0.21999999999999997      -1.97                    1.0541055659268976       -0.7968232498475593      0.021664564782512954     0.18873859926925338      0.26670261195875666
-0.19000000000000006      -1.97                    1.061034134308902        -0.7794883852531781      0.027929136722447012     0.22388522877931405      0.33684269493430913
-0.16000000000000003      -1.97                    1.0669462890196473       -0.7600255447294663      0.03519944164523717      0.2593475130726425       0.4156713904728306
-0.13                     -1.97                    1.0717809608400881       -0.738651580362101       0.04341972233894344      0.29388439939904676      0.5016417061667888
-0.10000000000000009      -1.97                    1.0754889573212223       -0.7155856031063921      0.0525190929380414       0.31274030720748586      0.6283538820706049
-0.07000000000000006      -1.97                    1.0780391129983695       -0.6910325864755476      0.062481171581284495     0.3394624512005503       0.7849434697297344
-0.040000000000000036     -1.97                    1.0794071162206003       -0.6652097181904868      0.07307094576340012      0.3587213332729476       0.9326845241937104
-0.010000000000000009     -1.97                    1.0795709967128204       -0.6383511407557068      0.08440720369676158      0.4051410306213037       1.0455549556114543
0.020000000000000018      -1.97                    1.0785523177302518       -0.610659435189187       0.09556075002573075      0.3648056195998769       1.2235289448240072
0.050000000000000044      -1.97                    1.0763584781686177       -0.582343406270258       0.10716222096184687      0.39488692538536674      1.3101385834660844
0.08000000000000007       -1.97                    1.0730080260719903       -0.553590035335448       0.11856568718532294      0.36439751979041685      1.4800551444079382
0.10999999999999988       -1.97                    1.0685429791169074       -0.5246056634749422      0.1294396085147424       0.3628563939220443       1.61411758408855
0.1399999999999999        -1.97                    1.0630038234661183       -0.49556359773758857     0.1399052597604985       0.3467991028847929       1.7718294018049712
0.16999999999999993       -1.97                    1.0564387301178937       -0.4666314901323083      0.14972498436099116      0.30784920381471875      1.9389288900685184
0.19999999999999996       -1.97                    1.048908795163409        -0.4379537107647428      0.15878246267424134      0.2828746311953377       2.0866096861828023
0.22999999999999998       -1.97                    1.0404785880395089       -0.40967323139226636     0.16688638295189842      0.25460826622639177      2.2313764544806607
0.26                      -1.97                    1.0312172841641591       -0.38191626142840995     0.17396460531940888      0.22305409314662347      2.3725757022217837
0.29000000000000004       -1.97                    1.0211953019160631       -0.3547931555888258      0.1799886362088406       0.17691189472232158      2.5026162879986686
0.31999999999999984       -1.97                    1.0104864303568457       -0.32839103129219305     0.1849838205677842       0.1452714247638039       2.619582252318684
0.34999999999999987       -1.97                    0.9991646445082478       -0.3027913063951409      0.18885203303544745      0.111258553426123        2.7288889210779477
0.3799999999999999        -1.97                    0.9873058106862871       -0.2780620596856347      0.19162046258086288      0.07704598570746783      2.828273368117534
0.4099999999999999        -1.97                    0.9749851033929439       -0.2542564890193824      0.19333508044241265      0.04318221379785876      2.9165728546397056
0.43999999999999995       -1.97                    0.9622698397855688       -0.2314121983764168      0.1941050399298765       0.008148418699726172     2.9678952667397436
0.47                      -1.97                    0.9492327860030902       -0.2095575719402435      0.19389740571186767      -0.020786828647363073    3.0237893573963825
0.5                       -1.97                    0.9359392530271213       -0.18871318597925793     0.19281184852919714      -0.04806661566151787     3.0672913429640043
0.53                      -1.97                    0.9224536637719164       -0.16888835433249416     0.19093578929256405      -0.07338164331788881     3.098046282016626
0.56                      -1.97                    0.9088335667674133       -0.15008292318706629     0.18839646118061715      -0.09590689747857024     3.0915870042285056
0.5899999999999999        -1.97                    0.895136096179127        -0.13229001450227926     0.18518880517572633      -0.11483371674550498     3.0928034368059656
0.6199999999999999        -1.97                    0.8814105601283299       -0.11549923547626305     0.1814379895620237       -0.1315309980783625      3.082892872580765
0.6499999999999999        -1.97                    0.8677052429270788       -0.09969248013234976     0.1772328115590187       -0.14593065066937735     3.0622128326194096
0.6799999999999999        -1.97                    0.8540638247432419       -0.08484670605840985     0.17265659812036452      -0.15800639491422894     3.031251995841792
0.71                      -1.97                    0.8405230513384045       -0.0709353710109926      0.1678042569021824       -0.16548301963124026     2.9698672211782706
0.74                      -1.97                    0.8271195758636443       -0.05793214270415862     0.16268491535315044      -0.1723234684055294      2.9205130812497253
0.77                      -1.97                    0.8138838164099113       -0.04580565770171175     0.1574035948539521       -0.17730309165801159     2.864200835903123
0.7999999999999998        -1.97                    0.8008438326966735       -0.034522366013490485    0.15202103340418344      -0.1805167094242782      2.8016665975829946
0.8299999999999998        -1.97                    0.7880231401467451       -0.024047579362312988    0.14660794995575332      -0.18035552047106262     2.719802744881823
0.8599999999999999        -1.97                    0.7754434454352703       -0.014348794622781203    0.14115750293433568      -0.18011951750678218     2.648543659739634
0.8899999999999999        -1.97                    0.7631216210145385       -0.00539130260638871     0.13574566018630543      -0.178707927307755       2.5741639382144608
0.9199999999999999        -1.97                    0.7510731504170352       0.0028607791593224428    0.13040807036031235      -0.17623847830924708     2.4973183051332355
0.95                      -1.97                    0.739310580679954        0.01044305480438418      0.1251781910962097       -0.18031781824790194     2.4143365219879116
0.98                      -1.97                    0.7278444565970502       0.017388955462552074     0.1200707600551989       -0.16739079327726875     2.331778301082819
1.0099999999999998        -1.97                    0.7166823478444111       0.02373076561768131      0.11510014735522925      -0.16254812382700398     2.25345276471625
1.04                      -1.97                    0.7058302718253547       0.02950226884793547      0.11029329120645014      -0.1572314213117576      2.1753107053676746
1.0699999999999998        -1.97                    0.6952925997465703       0.034736232423704036     0.10566161244135758      -0.15153110193043356     2.097772497077635
1.1                       -1.97                    0.6850723958847852       0.03946381830707355      0.10121677073459796      -0.14479167852020447     2.017445228052607
1.13                      -1.97                    0.6751709533935633       0.04371314213637599      0.09694947705474247      -0.1386961581590699      1.9441485310284978