% Model:              C2noStructPeEpsMin1Eps002.mph
% Version:            COMSOL 5.6.0.280
% Date:               Apr 22 2021, 16:40
% Dimension:          2
% Nodes:              10201
% Expressions:        5
% Description:        Velocity field, x component, Velocity field, y component, Concentration, Gradient of c, x component, Gradient of c, y component
% Length unit:        m
% x                       y                        u (m/s)                  v (m/s)                  u2 (1)                   u2x (1/m)                u2y (1/m)
-1                        -2                       0                        0                        0                        -5.561988295182929E-22   0
-0.97                     -2                       0                        0                        9.035602231238384E-24    1.0502413756828859E-21   4.087481754598727E-22
-0.94                     -2                       0                        0                        3.210632133178291E-23    3.545287322478621E-21    2.2242879237994014E-21
-0.91                     -2                       0                        0                        1.0784918315312777E-22   8.301629276615307E-21    7.17655650555617E-21
-0.88                     -2                       0                        0                        6.595213419171071E-22    -1.6593575629652304E-20  -1.1518540958601449E-20
-0.85                     -2                       0                        0                        3.584432903658471E-21    2.11587679745743E-19     2.3890490596930154E-19
-0.8200000000000001       -2                       0                        0                        1.0992139317438662E-20   7.126988011504531E-19    9.184787282735952E-19
-0.79                     -2                       0                        0                        3.189123985077231E-20    1.8963288429435906E-18   2.787169670551329E-18
-0.76                     -2                       0                        0                        1.0398531527936371E-19   2.7970728542484E-18      5.2947784081506116E-18
-0.73                     -2                       0                        0                        4.433304346202939E-19    -7.446099896156975E-18   -5.927085683774784E-18
-0.7                      -2                       0                        0                        1.2544787524899529E-18   6.152265442080082E-17    1.015941995141513E-16
-0.67                     -2                       0                        0                        3.192675213907818E-18    1.517432078780427E-16    2.779385715856182E-16
-0.64                     -2                       0                        0                        8.234950355158738E-18    2.9321961593831216E-16   6.222087250836685E-16
-0.61                     -2                       0                        0                        2.3705196989282976E-17   2.7706892476631793E-16   9.162662087721028E-16
-0.5800000000000001       -2                       0                        0                        6.854536726278977E-17    2.712275760134148E-15    5.447872687133485E-15
-0.55                     -2                       0                        0                        1.5547806454858923E-16   6.104624163364558E-15    1.3411492971672435E-14
-0.52                     -2                       0                        0                        3.48357114960236E-16     1.186014273152948E-14    2.9351012026768206E-14
-0.49                     -2                       0                        0                        8.100494424106263E-16    1.794343088137219E-14    5.452585672313812E-14
-0.45999999999999996      -2                       0                        0                        2.0368092183172565E-15   1.1818053479546079E-14   7.432685586538214E-14
-0.43000000000000005      -2                       0                        0                        4.3494120212955426E-15   1.423554667190068E-13    3.714691748375867E-13
-0.4                      -2                       0                        0                        8.704197575068583E-15    2.616231674630788E-13    7.603367353862403E-13
-0.37                     -2                       0                        0                        1.7537335574975802E-14   4.189019510709655E-13    1.4187344961855652E-12
-0.3400000000000001       -2                       0                        0                        3.6549840579161144E-14   5.258784016413592E-13    2.3467502703159198E-12
-0.31000000000000005      -2                       0                        0                        7.589410688844101E-14    2.0970726856439614E-12   6.431097077181793E-12
-0.28                     -2                       0                        0                        1.3811528544975725E-13   3.599148442512405E-12    1.2187549094808488E-11
-0.25                     -2                       0                        0                        2.5001512990187876E-13   5.637155718325417E-12    2.1696092107817732E-11
-0.21999999999999997      -2                       0                        0                        4.578833623602509E-13    7.752265126199653E-12    3.598245734171253E-11
-0.19000000000000006      -2                       0                        0                        8.597805198738468E-13    8.434322621883575E-12    5.477300146367848E-11
-0.16000000000000003      -2                       0                        0                        1.4900078993759244E-12   3.35808360115882E-11     1.3123640151663955E-10
-0.13                     -2                       0                        0                        2.4691290798790516E-12   4.9462303577440246E-11   2.205621572267495E-10
-0.10000000000000009      -2                       0                        0                        4.1184650856053056E-12   6.873709137454533E-11    3.615467437554632E-10
-0.07000000000000006      -2                       0                        0                        6.907391853400209E-12    9.253876641140865E-11    5.630166039683903E-10
-0.040000000000000036     -2                       0                        0                        1.1379197998342507E-11   2.0558164325141061E-10   1.0372936898467726E-9
-0.010000000000000009     -2                       0                        0                        1.8008911388279138E-11   3.3619514289754436E-10   1.6910679410906773E-9
0.020000000000000018      -2                       0                        0                        2.726464964974167E-11    4.2937254685635656E-10   2.498120083850755E-9
0.050000000000000044      -2                       0                        0                        4.242811377662828E-11    5.120432287544645E-10    3.4225357273083157E-9
0.08000000000000007       -2                       0                        0                        6.603220586186725E-11    5.630362767985851E-10    5.113726380126252E-9
0.10999999999999988       -2                       0                        0                        9.770318058508197E-11    1.5483620380824063E-9    8.850857396588153E-9
0.1399999999999999        -2                       0                        0                        1.4134403149925117E-10   1.9821230366848934E-9    1.2893643481279338E-8
0.16999999999999993       -2                       0                        0                        2.0485325217345446E-10   2.4202193563983412E-9    1.831917223552712E-8
0.19999999999999996       -2                       0                        0                        2.978837932499634E-10    2.7602256421070984E-9    2.5352225793405607E-8
0.22999999999999998       -2                       0                        0                        4.2780377401035163E-10   5.901106408585416E-9     3.899998813932275E-8
0.26                      -2                       0                        0                        5.887608987158906E-10    7.353093847069684E-9     5.443959105052075E-8
0.29000000000000004       -2                       0                        0                        8.09845987002406E-10     8.828025340553154E-9     7.448367341314496E-8
0.31999999999999984       -2                       0                        0                        1.1155454927553708E-9    1.0125720181336045E-8    9.993011148752266E-8
0.34999999999999987       -2                       0                        0                        1.5410058680436817E-9    1.0939699070865199E-8    1.3159170802717708E-7
0.3799999999999999        -2                       0                        0                        2.0481417077030633E-9    2.2869356906426774E-8    1.907000733963994E-7
0.4099999999999999        -2                       0                        0                        2.701637113769207E-9     2.6902496065140143E-8    2.5216991967978707E-7
0.43999999999999995       -2                       0                        0                        3.5640796962046636E-9    3.0564036115103115E-8    3.2841735017088116E-7
0.47                      -2                       0                        0                        4.707701122509809E-9     3.32987622742103E-8      4.2158384768184376E-7
0.5                       -2                       0                        0                        6.126782421197113E-9     6.130665763827654E-8     5.725713311323913E-7
0.53                      -2                       0                        0                        7.804254912862726E-9     7.065250971356382E-8     7.347552710538701E-7
0.56                      -2                       0                        0                        9.936019970348728E-9     7.925245613721681E-8     9.313617347010732E-7
0.5899999999999999        -2                       0                        0                        1.2655208867522993E-8    8.616843318632008E-8     1.1669611904640816E-6
0.6199999999999999        -2                       0                        0                        1.612455733595306E-8     1.451214647090183E-7     1.5104590558737086E-6
0.6499999999999999        -2                       0                        0                        1.9948184778770364E-8    1.6415034729501674E-7    1.8879306404827185E-6
0.6799999999999999        -2                       0                        0                        2.465971813916969E-8     1.8169584994263602E-7    2.3360701716682513E-6
0.71                      -2                       0                        0                        3.0482447612608123E-8    1.962891020534113E-7     2.8632604663438256E-6
0.74                      -2                       0                        0                        3.76943801570602E-8      2.0611632712984574E-7    3.478166586428907E-6
0.77                      -2                       0                        0                        4.594888872220108E-8     3.4418424387954513E-7    4.362727937739764E-6
0.7999999999999998        -2                       0                        0                        5.5414670760329494E-8    3.7612121555731885E-7    5.284501946093068E-6
0.8299999999999998        -2                       0                        0                        6.681161753010708E-8     4.03071880275029E-7      6.350691939664139E-6
0.8599999999999999        -2                       0                        0                        8.055935692027498E-8     4.2247354022250706E-7    7.575448365399626E-6
0.8899999999999999        -2                       0                        0                        9.682375081221555E-8     6.618193859068633E-7     9.211712270836845E-6
0.9199999999999999        -2                       0                        0                        1.1435247444379511E-7    7.147202205241717E-7     1.0950821358305361E-5
0.95                      -2                       0                        0                        1.3500379798503382E-7    7.595343901414672E-7     1.2932148099857987E-5
0.98                      -2                       0                        0                        1.593733282138248E-7     7.92825942710926E-7      1.5176693418515277E-5
1.0099999999999998        -2                       0                        0                        1.8816068258736282E-7    8.106974816764651E-7     1.770607418080389E-5
1.04                      -2                       0                        0                        2.1927064796222532E-7    1.2633002099810118E-6    2.1053951266596733E-5
1.0699999999999998        -2                       0                        0                        2.5428710973200553E-7    1.331646056498594E-6     2.4481924810500205E-5
1.1                       -2                       0                        0                        2.948535150007712E-7     1.3830311992288174E-6    2.8317089872752266E-5
1.13                      -2                       0                        0                        3.418953364515258E-7     1.4125873416628848E-6    3.2589056404937405E-5
1.1600000000000001        -2                       0                        0                        3.945739998539643E-7     2.0993235518329806E-6    3.794924857093865E-5
1.19                      -2                       0                        0                        4.506386217991487E-7     2.196156565139686E-6     4.352978077289324E-5
1.2199999999999998        -2                       0                        0                        5.145846250010663E-7     2.268896017604509E-6     4.9704077449454934E-5
1.25                      -2                       0                        0                        5.875866540011411E-7     2.311687380387026E-6     5.651018495770412E-5
1.2799999999999998        -2                       0                        0                        6.709686130711E-7        2.3182392622113703E-6    6.398699371145483E-5
1.31                      -2                       0                        0                        7.573009929824935E-7     3.4372527318815244E-6    7.330901443162664E-5
1.3399999999999999        -2                       0                        0                        8.534318235707721E-7     3.532781314136221E-6     8.275486435523298E-5
1.37                      -2                       0                        0                        9.6172356277423E-7       3.5884283690693844E-6    9.307063384896778E-5
1.4                       -2                       0                        0                        1.0837774221817107E-6    3.59699998723379E-6      1.0430352165412207E-4
1.4299999999999997        -2                       0                        0                        1.2148703214704186E-6    5.142526632013432E-6     1.17762691084095E-4
1.46                      -2                       0                        0                        1.3535221987926146E-6    5.259638025180488E-6     1.3159144158725702E-4
1.4899999999999998        -2                       0                        0                        1.5079390839406631E-6    5.325108902277523E-6     1.4656870686799648E-4
1.52                      -2                       0                        0                        1.6800035546015166E-6    5.330943776236337E-6     1.6274925483176033E-4
1.5499999999999998        -2                       0                        0                        1.8709490789575471E-6    7.398757847499228E-6     1.81507717563089E-4
1.58                      -2                       0                        0                        2.063801292326644E-6     7.53295166163441E-6      2.0099415311610014E-4
1.6099999999999999        -2                       0                        0                        2.2764742363749115E-6    7.6020055781704475E-6    2.219432320108174E-4
1.6399999999999997        -2                       0                        0                        2.5111283618655777E-6    7.597259161950249E-6     2.444161099448624E-4
1.67                      -2                       0                        0                        2.7701033950940017E-6    7.509845114566859E-6     2.684746387438185E-4
1.6999999999999997        -2                       0                        0                        3.03921598109164E-6      1.0430993951942524E-5    2.963191691325464E-4
1.73                      -2                       0                        0                        3.3232888811239648E-6    1.0493838927158007E-5    3.246827668298713E-4
1.7599999999999998        -2                       0                        0                        3.6340535317423403E-6    1.0467315384444633E-5    3.549179396197172E-4
1.79                      -2                       0                        0                        3.9741174524604894E-6    1.0342139434097278E-5    3.870912533763897E-4
1.8199999999999998        -2                       0                        0                        4.3396044736850815E-6    1.402366198087583E-5     4.2338797960440595E-4
1.85                      -2                       0                        0                        4.70890413085858E-6      1.4066841999326562E-5    4.607092184597681E-4
1.88                      -2                       0                        0                        5.10990206935286E-6      1.4003944618734354E-5    5.002688944832713E-4
1.9099999999999997        -2                       0                        0                        5.545455457869629E-6     1.3825447103234363E-5    5.421365786341702E-4
1.94                      -2                       0                        0                        6.018595456087694E-6     1.3521828049660705E-5    5.863822286670927E-4
1.9699999999999998        -2                       0                        0                        6.497071288768293E-6     1.8376560795712715E-5    6.362453563488126E-4
2                         -2                       0                        0                        7.002670204128649E-6     1.8259440402459705E-5    6.867481698329998E-4
-1                        -1.97                    0                        0                        -3.1722000516968237E-40  -1.5329072986737218E-23  -1.5048953518494604E-39
-0.97                     -1.97                    0                        0                        2.2098697234704542E-23   1.604869794303228E-21    1.845852255150294E-21
-0.94                     -1.97                    0                        0                        2.775502375307457E-22    1.0789114582590308E-20   1.4138639822798106E-20
-0.91                     -1.97                    0                        0                        1.165822660823704E-21    7.195141317162108E-20    5.332449842496859E-20
-0.88                     -1.97                    0                        0                        4.5604328277504356E-21   2.770583454416957E-19    2.4827249510039903E-19
-0.85                     -1.97                    0                        0                        1.6552118692520697E-20   8.946864548926176E-19    9.744704647133533E-19
-0.8200000000000001       -1.97                    0                        0                        6.18579761718395E-20     1.898327075362832E-18    3.005628204978558E-18
-0.79                     -1.97                    0                        0                        2.5350422117579717E-19   1.0878089258234332E-17   1.029284396923486E-17
-0.76                     -1.97                    0                        0                        8.017130676687969E-19    3.634222400195782E-17    3.78760316404751E-17
-0.73                     -1.97                    0                        0                        2.372585762462728E-18    1.0499629503263134E-16   1.2402824251672524E-16
-0.7                      -1.97                    0                        0                        6.8965350723903365E-18   2.495780327591738E-16    3.5695859877417685E-16
-0.67                     -1.97                    0                        0                        2.0924074457004864E-17   4.1186886400980043E-16   8.73626695584683E-16
-0.64                     -1.97                    0                        0                        5.932527782172818E-17    2.1482113603050864E-15   2.5305238141882638E-15
-0.61                     -1.97                    0                        0                        1.5065236638667122E-16   5.4573532564011925E-15   7.08361169292246E-15
-0.5800000000000001       -1.97                    0                        0                        3.7160570255154483E-16   1.2320536524447348E-14   1.821506180440998E-14
-0.55                     -1.97                    0                        0                        9.189986427725574E-16    2.3697170411909576E-14   4.262845311634669E-14
-0.52                     -1.97                    0                        0                        2.321149375305417E-15    5.2720873675127644E-14   1.0216847199624374E-13
-0.49                     -1.97                    0                        0                        5.220232712881507E-15    1.5732669687717156E-13   2.250630865639459E-13
-0.45999999999999996      -1.97                    0                        0                        1.1361991662369056E-14   3.2574719426341006E-13   5.168987097579548E-13
-0.43000000000000005      -1.97                    0                        0                        2.435587759517718E-14    6.127601498857705E-13    1.109666056026043E-12
-0.4                      -1.97                    0                        0                        5.230364579857844E-14    1.0190380888191123E-12   2.21837518611029E-12
-0.37                     -1.97                    0                        0                        1.0875578446866094E-13   2.7444378225197166E-12   4.358980350529304E-12
-0.3400000000000001       -1.97                    0                        0                        2.1277141609199866E-13   5.19575258912171E-12     8.999900779609347E-12
-0.31000000000000005      -1.97                    0                        0                        4.0818296177260353E-13   9.211038206711758E-12    1.765359394247798E-11
-0.28                     -1.97                    0                        0                        7.753285819839709E-13    1.515525185437379E-11    3.288397885432612E-11
-0.25                     -1.97                    0                        0                        1.4693303441757144E-12   2.4657500640101005E-11   5.95915888437712E-11
-0.21999999999999997      -1.97                    0                        0                        2.635728378452165E-12    5.497224944512771E-11    1.0465532297076467E-10
-0.19000000000000006      -1.97                    0                        0                        4.6134370816184305E-12   9.097067619564101E-11    1.8863045814010753E-10
-0.16000000000000003      -1.97                    0                        0                        7.967717489545831E-12    1.421433114767718E-10    3.2612349193228667E-10
-0.13                     -1.97                    0                        0                        1.364149110456527E-11    2.152384228443521E-10    5.424923553138956E-10
-0.10000000000000009      -1.97                    0                        0                        2.275671207313757E-11    3.9244297506046986E-10   8.474892055988147E-10
-0.07000000000000006      -1.97                    0                        0                        3.689150468003854E-11    6.189227486923378E-10    1.3742089077955044E-9
-0.040000000000000036     -1.97                    0                        0                        5.800414685183964E-11    9.108840649230689E-10    2.1431301914169373E-9
-0.010000000000000009     -1.97                    0                        0                        9.39725642048579E-11     1.5377478506893658E-9    3.8455845127751875E-9
0.020000000000000018      -1.97                    0                        0                        1.4447020403724048E-10   1.6100377487835323E-9    4.829851736482168E-9
0.050000000000000044      -1.97                    0                        0                        2.2511062905606618E-10   3.5506595214329743E-9    8.402120363039537E-9
0.08000000000000007       -1.97                    0                        0                        3.341150412273053E-10    4.452131321593551E-9     1.2503649217066876E-8
0.10999999999999988       -1.97                    0                        0                        4.937600914542882E-10    6.2692221111505024E-9    1.8323753312576605E-8
0.1399999999999999        -1.97                    0                        0                        7.263744899591172E-10    8.365677358608031E-9     2.653415712477389E-8
0.16999999999999993       -1.97                    0                        0                        1.051322471075078E-9     1.3297521382456004E-8    3.7067204708109667E-8
0.19999999999999996       -1.97                    0                        0                        1.4910287670946483E-9    1.7891224403227152E-8    5.328040657700937E-8
0.22999999999999998       -1.97                    0                        0                        2.095566808756207E-9     2.3628329494993776E-8    7.506180606171888E-8
0.26                      -1.97                    0                        0                        2.921102068518277E-9     3.0639354310432765E-8    1.0377823538906436E-7
0.29000000000000004       -1.97                    0                        0                        4.0443279961266755E-9    3.8184227972199266E-8    1.4114846052847287E-7
0.31999999999999984       -1.97                    0                        0                        5.49133151021798E-9      5.7630417534262515E-8    1.8890605551605045E-7
0.34999999999999987       -1.97                    0                        0                        7.393126865216605E-9     7.375252461373145E-8     2.55565356685536E-7
0.3799999999999999        -1.97                    0                        0                        9.879646071668266E-9     9.28772650475222E-8      3.4046801483688483E-7
0.4099999999999999        -1.97                    0                        0                        1.311339306179034E-8     1.1518382641996219E-7    4.4701520402592663E-7
0.43999999999999995       -1.97                    0                        0                        1.7223977599058197E-8    1.5885514273122778E-7    5.734957011149917E-7
0.47                      -1.97                    0                        0                        2.236709616681509E-8     1.9723292694978924E-7    7.487992373662559E-7
0.5                       -1.97                    0                        0                        2.8852846758694516E-8    2.418003594965546E-7     9.653647940787193E-7
0.53                      -1.97                    0                        0                        3.699198433938178E-8     2.9293374733859444E-7    1.229793289884152E-6
0.56                      -1.97                    0                        0                        4.7143824925447736E-8    3.838556250658029E-7     1.5251996871695714E-6
0.5899999999999999        -1.97                    0                        0                        5.9387030703729733E-8    4.643873285036683E-7     1.9319098758230696E-6
0.6199999999999999        -1.97                    0                        0                        7.437402161086381E-8     5.561281595017598E-7     2.4215030091186666E-6
0.6499999999999999        -1.97                    0                        0                        9.263862858252403E-8     6.596849878215473E-7     3.005280204549076E-6
0.6799999999999999        -1.97                    0                        0                        1.1480081380019886E-7    7.756005506048701E-7     3.695183692726959E-6
0.71                      -1.97                    0                        0                        1.4117861155766935E-7    9.829192998931587E-7     4.4773582247574946E-6
0.74                      -1.97                    0                        0                        1.7243862049021695E-7    1.1531811097368335E-6    5.47755128985096E-6
0.77                      -1.97                    0                        0                        2.0961501999022713E-7    1.3425221870528553E-6    6.6458990832895425E-6
0.7999999999999998        -1.97                    0                        0                        2.536558365883514E-7     1.5517308203105097E-6    8.000740753606203E-6
0.8299999999999998        -1.97                    0                        0                        3.054522020737719E-7     1.9013602120508487E-6    9.471818276418542E-6
0.8599999999999999        -1.97                    0                        0                        3.652191089018822E-7     2.191234053642581E-6     1.1347678505533987E-5
0.8899999999999999        -1.97                    0                        0                        4.3485148963159844E-7    2.5093188385649818E-6    1.3500414556601859E-5
0.9199999999999999        -1.97                    0                        0                        5.156984768075723E-7     2.856614478507171E-6     1.595600693532436E-5
0.95                      -1.97                    0                        0                        6.093025199825168E-7     3.132257912593223E-6     1.8687766699974165E-5
0.98                      -1.97                    0                        0                        7.157528731603893E-7     3.866353349048905E-6     2.1805303974911037E-5
1.0099999999999998        -1.97                    0                        0                        8.372254942750714E-7     4.3641403802491215E-6    2.550310467887737E-5
1.04                      -1.97                    0                        0                        9.758811949741692E-7     4.901844263024334E-6     2.966120063280717E-5