% Model:              C2EQPeEpsMin1Eps002.mph
% Version:            COMSOL 5.6.0.280
% Date:               Sep 22 2021, 22:20
% Dimension:          2
% Nodes:              3001
% Expressions:        8
% Description:        Velocity field, x component, Velocity field, y component, Dependent variable u3, Gradient of u3, x component, Gradient of u3, y component, , , 
% Length unit:        m
% x                       y                        u (m/s)                  v (m/s)                  u3 (1)                   u3x (1/m)                u3y (1/m)                u5 (1)                   u5x (1/m)                u5y (1/m)
0                         -2                       1.1020911794239867       -0.6343443783729974      0.04424856598103175      0.18401640148533951      2.1553989649814933       0.04494098593449401      0.18613429191810635      2.247049076838593
0                         -1.999                   1.1012151167044355       -0.6343453325455315      0.04638349473174408      0.19310169103208652      2.1144585364441175       0.04715791164934059      0.19534658971528096      2.187201440264252
0                         -1.998                   1.1003434073270189       -0.6343453922231104      0.048477483053919974     0.20202826728382905      2.0735181079067218       0.04931617258102419      0.2043725988887471       2.1297051990833715
0                         -1.997                   1.0994760512917372       -0.6343445574057337      0.050530530947558015     0.21079613907896114      2.0325776793693384       0.05141807767383099      0.2132161396588146       2.074475931749664
0                         -1.996                   1.0986130485985897       -0.6343428280934014      0.05254263841265865      0.2194053152552249       1.9916372508319546       0.05346585287994518      0.22188102236350465      2.021432063047776
0                         -1.995                   1.0977543992475771       -0.6343402042861137      0.05451380544922169      0.22785580464972907      1.9506968222945742       0.0554616439681157       0.23037104289652532      1.970494788770155
0                         -1.994                   1.0969001032386991       -0.6343366859838706      0.05644403205724757      0.2361476160988835       1.909756393757188        0.05740751925700396      0.2386899783911868       1.9215880003940202
0                         -1.993                   1.0960501605719561       -0.6343322731866722      0.058333318236736084     0.24428075843849867      1.8688159652198044       0.05930547227320564      0.246841583156975        1.8746382097582073
0                         -1.992                   1.0952045712473475       -0.6343269658945182      0.06018166398768761      0.25225524050365034      1.8278755366824107       0.06115742433395207      0.25482958486989304      1.82957447374009
0                         -1.991                   1.0943633352648736       -0.6343207641074088      0.06198906931010093      0.26007107112885003      1.786935108145034        0.06296522705448498      0.2626576810109644       1.7863283189325165
0                         -1.99                    1.0935264526245345       -0.6343136678253439      0.06375553420397746      0.2677282591478881       1.745994679607645        0.0647306647801147       0.27032953555844014      1.7448336663206465
0                         -1.989                   1.09269392332633         -0.6343056770483235      0.06548105866931622      0.27522681339392546      1.7050542510702649       0.06645545694294584      0.27784877592930546      1.7050267559589376
0                         -1.988                   1.09186574737026         -0.6342967917763477      0.06716564270611798      0.28256674269945237      1.6641138225328755       0.06814126034328924      0.2852189901736708       1.6668460716479658
0                         -1.987                   1.091041924756325        -0.6342870120094163      0.06880928631438199      0.2897480558963107       1.6231733939954955       0.06978967135574324      0.29244372441851174      1.630232265611384
0                         -1.986                   1.0902224554845243       -0.6342763377475297      0.07041198949410897      0.29677076181568646      1.5822329654581062       0.07140222805995826      0.2995264805640197       1.5951280831728292
0                         -1.985                   1.0894073395548587       -0.6342647689906875      0.07197375224529821      0.303634869288113        1.5412925369207258       0.07298041229607226      0.3064707142315135       1.5614782874328133
0                         -1.984                   1.0885965769673276       -0.6342523057388898      0.07349457456795042      0.3103403871434859       1.5003521083833369       0.0745256516448289       0.31327983295867096      1.529229583945603
0                         -1.983                   1.087790167721931        -0.6342389479921368      0.0749744564620649       0.31688732421098414      1.459411679845955        0.07603932133236707      0.3199571946521152       1.498330545396152
0                         -1.982                   1.0869881118186693       -0.6342246957504282      0.07641339792764232      0.3232756893192035       1.4184712513085658       0.0775227460596926       0.32650610628547033      1.4687315362770368
0                         -1.981                   1.086190409257542        -0.6342095490137641      0.07781139896468205      0.32950549129606505      1.3775308227711855       0.07897720175682185      0.33292982284881856      1.4403846375653178
0                         -1.98                    1.085397059870155        -0.6341935077720265      0.07916848809182328      0.3355769360202399       1.3653431048964453       0.08040391726170104      0.33923154655609994      1.4132436667756727
0                         -1.979                   1.0846076894054089       -0.6341765482723489      0.08052533552760671      0.34171339363028386      1.3483517666702434       0.08180407643376818      0.3454144255143685       1.3872646177910353
0                         -1.978                   1.0838222629266108       -0.6341586671524925      0.08186519162516408      0.3477425845923159       1.3313604284440355       0.08317881932601325      0.35148155018278565      1.3624041044385504
0                         -1.977                   1.0830407804337614       -0.6341398644124573      0.08318805638449452      0.3536659705025333       1.314369090217839        0.08452924371121573      0.35743595822317087      1.3386208449157693
0                         -1.976                   1.0822632419268587       -0.6341201400522429      0.08449392980559987      0.3594849865233034       1.297377751991626        0.08585640680543118      0.36328063068470856      1.3158750009439335
0                         -1.975                   1.081489647405905        -0.6340994940718501      0.08578281188847797      0.36520104197794284      1.2803864137654275       0.087161326691626        0.3690184917744235       1.2941281380051903
0                         -1.974                   1.0807199968708991       -0.6340779264712783      0.08705470263313045      0.3708155209298508       1.2633950755392236       0.08844498370356531      0.3746524086958597       1.2733431855797137
0                         -1.973                   1.0799542903218418       -0.6340554372505277      0.08830960203955644      0.3763297827455687       1.246403737313021        0.08970832176992315      0.38018519155488933      1.2534843973831025
0                         -1.972                   1.0791925277587318       -0.6340320264095981      0.08954751010775663      0.38174516264358993      1.2294123990868144       0.09095224971864056      0.38561959333770696      1.234517311603494
0                         -1.971                   1.0784347091815703       -0.63400769394849        0.09076842683773036      0.38706297222788816      1.2124210608606127       0.09217764254151381      0.39095830995087255      1.2164087111388944
0                         -1.97                    1.0776808345903566       -0.6339824398672028      0.09197235222947772      0.39228450000784115      1.1954297226344095       0.09338534261902509      0.39620398032629583      1.199126583834338
0                         -1.969                   1.0769309039850912       -0.6339562641657368      0.0931592862829989       0.39741101190418215      1.178438384408209        0.09457616090540738      0.4013591865864442       1.18264008271924
0                         -1.968                   1.0761849173657736       -0.6339291668440921      0.09432922899829414      0.40244375174204966      1.1614470461820026       0.09575087807394746      0.4064264542709824       1.166919486244494
0                         -1.967                   1.075442874732404        -0.6339011479022685      0.09548218037536291      0.4073839417307318       1.1444557079558013       0.09691024562252534      0.41140825261795116      1.151936158519871
0                         -1.966                   1.0747047760849828       -0.6338722073402661      0.09661814041420573      0.4122327829313255       1.1274643697295954       0.09805498693939323      0.41630699490663925      1.1376625095510926
0                         -1.965                   1.0739706214235096       -0.6338423451580848      0.09773710911482211      0.4169914557121889       1.1104730315033957       0.09918579832918843      0.4211250388466957       1.1240719554772902
0                         -1.964                   1.0732404107479843       -0.6338115613557247      0.09883908647721253      0.4216611201926155       1.0934816932771898       0.10030334999918701      0.42586468702629765      1.1111388788079486
0                         -1.963                   1.0725141440584072       -0.6337798559331858      0.0999240725013765       0.4262429166751954       1.0764903550509883       0.10140828700579113      0.43052818741046256      1.0988385886604952
0                         -1.962                   1.0717918213547781       -0.6337472288904681      0.1009920671873145       0.4307379660671805       1.0594990168247824       0.10250123016125735      0.43511773388583064      1.0871472809972051
0                         -1.961                   1.071073442637097        -0.6337136802275715      0.10204307053502605      0.4351473702911084       1.0425076785985812       0.10358277690065829      0.4396354668565484       1.0760419988627077
0                         -1.96                    1.0703590076906566       -0.6336792099318994      0.10307710863909725      0.43947232366512334      1.0386763453935628       0.10465350210919869      0.44408347388812985      1.065500650149194
0                         -1.959                   1.0696482184000018       -0.6336438016734204      0.10411286252327263      0.4437854402532761       1.032831422957131        0.10571395919671005      0.4484637918903704       1.0555022357135222
0                         -1.958                   1.0689409931396225       -0.633607451818735       0.1051427714850115       0.4480471189283886       1.0269865005206984       0.10676468063839716      0.4527784043399862       1.046026018851506
0                         -1.957                   1.0682373319095184       -0.6335701603678429      0.10616683552431382      0.45225746917956855      1.0211415780842668       0.10780617873317609      0.4570292450101844       1.0370523218679544
0                         -1.956                   1.0675372347096899       -0.6335319273207444      0.10718505464118         0.4564166001853644       1.0152966556478322       0.10883894645777595      0.46121819761518074      1.0285621747313944
0                         -1.955                   1.0668407015401367       -0.6334927526774391      0.10819742883560973      0.4605246208149643       1.0094517332113997       0.10986345816434492      0.46534709662166657      1.0205372949601803
0                         -1.954                   1.066147732400859        -0.6334526364379272      0.10920395810760294      0.46458163962916804      1.0036068107749647       0.11088017025794397      0.4694177280478008       1.0129600675089103
0                         -1.953                   1.0654583272918567       -0.6334115786022088      0.11020464245715948      0.4685877648816213       0.9977618883385326       0.11188952185392596      0.4734318302720412       1.005813524654794
0                         -1.952                   1.0647724862131298       -0.6333695791702838      0.1111994818842799       0.47254310451977         0.9919169659020974       0.11289193541520243      0.4773910948428366       0.9990813258840456
0                         -1.951                   1.0640902091646784       -0.6333266381421523      0.11218847638896369      0.47644776618597356      0.986072043465666        0.11388781736939373      0.48129716729885175      0.9927477377782971
0                         -1.95                    1.0634114961465022       -0.6332827555178141      0.11317162597121123      0.48030185721865215      0.9802271210292326       0.11487755870586995      0.48515164798187627      0.9867976139009662
0                         -1.949                   1.0627363471586018       -0.6332379312972694      0.11414893063102227      0.4841054846532753       0.9743821985927998       0.11586153555267409      0.48895609286353164      0.9812163746836678
0                         -1.948                   1.0620647622009765       -0.633192165480518       0.11512039036839695      0.4878587552235072       0.9685372761563646       0.1168401097333346       0.49271201436941736      0.975989987312619
0                         -1.947                   1.0613967412736267       -0.6331454580675602      0.11608600518333499      0.49156177536217044      0.9626923537199328       0.11781362930356234      0.4964208822082706       0.9711049456149634
0                         -1.946                   1.0607322843765525       -0.6330978090583956      0.1170457750758366       0.4952146512024165       0.9568474312835009       0.11878242906783566      0.5000841242074009       0.966548249945254
0                         -1.945                   1.0600713915097535       -0.6330492184530245      0.11799970004590199      0.498817488578659        0.9510025088470675       0.1197468310758705       0.5037031271463094       0.9623073870717744
0                         -1.944                   1.05941406267323         -0.6329996862514469      0.11894778009353074      0.5023703930277488       0.9451575864106339       0.12070714509897654      0.5072792375994781       0.9583703100630009
0                         -1.943                   1.0587602978669817       -0.6329492124536625      0.11989001521872325      0.5058734697899095       0.9393126639742004       0.12166366908630226      0.5108137627787807       0.9547254181739161
0                         -1.942                   1.0581100970910093       -0.6328977970596718      0.12082640542147914      0.5093268238098664       0.9334677415377667       0.1226166896009629       0.5143079713807339       0.9513615367324262
0                         -1.941                   1.057463460345312        -0.6328454400694743      0.12175695070179879      0.5127305597378344       0.9276228191013315       0.1235664822360583       0.5177630944369643       0.9482678970258505
0                         -1.94                    1.0568203873944242       -0.632792141462314       0.12268167012311053      0.5160848126514744       0.9281895535877664       0.12451331201067246      0.5211803261712383       0.9454341497422661
0                         -1.939                   1.0561806214998146       -0.6327378874914408      0.12360951471337482      0.5194120225171135       0.9274996269406108       0.12545743390068048      0.5245608243562153       0.9428504747421259
0                         -1.938                   1.0555440644742542       -0.6326826783336822      0.12453666937699176      0.5227138710060663       0.9268097002934532       0.1263990930759241       0.5279057120908075       0.9405071586209183
0                         -1.937                   1.0549107163177425       -0.6326265139890382      0.12546313411396173      0.5259902542040784       0.9261197736463012       0.12733852526789669      0.5312160777344899       0.9383950036714019
0                         -1.936                   1.0542805770302799       -0.6325693944575089      0.12638890892428437      0.5292410676286481       0.9254298469991453       0.12827595717993726      0.5344929760457495       0.936505149654093
0                         -1.935                   1.0536536466118658       -0.6325113197390942      0.12731399380796002      0.5324662062246577       0.9247399203519878       0.12921160681978242      0.537737428958014        0.9348290639628428
0                         -1.934                   1.0530299250625008       -0.6324522898337942      0.12823838876498833      0.5356655643609636       0.9240499937048355       0.1301456838222809       0.5409504263518267       0.9333585317908353
0                         -1.933                   1.0524094123821846       -0.6323923047416088      0.12916209379536972      0.5388390358259519       0.9233600670576799       0.13107838976227731      0.5441329268174345       0.9320856462962749
0                         -1.932                   1.051792108570917        -0.6323313644625381      0.1300851088991039       0.5419865138238593       0.9226701404105224       0.1320099184576592       0.5472858584036381       0.931002798768325
0                         -1.931                   1.0511780136286986       -0.632269468996582       0.13100743407619075      0.545107890970747        0.9219802137633685       0.13294045626257078      0.5504101193589861       0.9301026687928673
0                         -1.93                    1.0505671275555288       -0.6322066183437406      0.13192906932663054      0.5482030592901631       0.9212902871162109       0.13387018235079362      0.5535065788643228       0.9293782144181978
0                         -1.929                   1.0499594503514078       -0.6321428125040136      0.13285001465042295      0.5512719102094803       0.9206003604690576       0.13479926898929065      0.556576077752036        0.9288226623211816
0                         -1.928                   1.049354982016336        -0.6320780514774016      0.13377027004756875      0.5543143345554126       0.9199104338218995       0.1357278818019194       0.5596194292202098       0.9284294979726856
0                         -1.927                   1.0487537225503127       -0.632012335263904       0.13468983551806685      0.5573302225499596       0.9192205071747462       0.13665618002330573      0.5626374195281316       0.9281924558036824
0                         -1.926                   1.0481556719533385       -0.6319456638635211      0.13560871106191824      0.5603194638063705       0.9185305805275893       0.13758431674289107      0.5656308086892005       0.9281055093708901
0                         -1.925                   1.0475608302254134       -0.6318780372762529      0.136526896679122        0.563281947324656        0.9178406538804359       0.13851243913913724      0.5686003311506527       0.9281628615227336
0                         -1.924                   1.0469691973665367       -0.6318094555020993      0.13744439236967898      0.5662175614874799       0.9171507272332802       0.13944068870390408      0.5715466964603642       0.9283589345650384
0                         -1.923                   1.0463807733767088       -0.6317399185410602      0.13836119813358863      0.5691261940559779       0.9164608005861227       0.14036920145698742      0.5744705899278281       0.928688360427003
0                         -1.922                   1.0457955582559297       -0.631669426393136       0.13927731397085133      0.5720077321651803       0.9157708739389666       0.14129810815082683      0.5773726732669915       0.9291459708267821
0                         -1.921                   1.0452135520041999       -0.6315979790583262      0.14019273988146638      0.5748620623196502       0.9150809472918179       0.1422275344653765       0.5802535852369604       0.9297267874376146
0                         -1.92                    1.0446347544228076       -0.6315255765157367      0.1411074877232727       0.5776891114893247       0.9173832603689583       0.14315760119321502      0.5831139422622011       0.930426029929194
0                         -1.919                   1.0440589493888504       -0.6314522089288465      0.1420257061526943       0.5805052578617912       0.9190535984740756       0.14408842449405693      0.5859543386696643       0.9312391681575347
0                         -1.918                   1.0434860216289048       -0.63137787696352        0.14294559492022096      0.5833063495664285       0.9207239365791934       0.14502011599584816      0.5887753481354946       0.9321617107381804
0                         -1.917                   1.0429159711429716       -0.6313025806197579      0.14386715402585246      0.5860924303971224       0.9223942746843093       0.14595278296643108      0.5915775235482983       0.9331894112559759
0                         -1.916                   1.0423487979310497       -0.6312263198975594      0.1447903834695896       0.5888635439778842       0.9240646127894264       0.14688652850626693      0.594361397808649        0.9343181805812649
0                         -1.915                   1.0417845019931398       -0.6311490947969252      0.14571528325143127      0.5916197337639784       0.9257349508945406       0.1478214517033782       0.5971274843810923       0.9355440821913642
0                         -1.914                   1.0412230833292417       -0.6310709053178549      0.14664185337137875      0.5943610430425946       0.9274052889996596       0.14875764778362208      0.5998762778269178       0.9368633274935172
0                         -1.913                   1.040664541939356        -0.6309917514603489      0.1475700938294308       0.5970875149335867       0.9290756271047762       0.14969520825627605      0.6026082543374024       0.9382722711467245
0                         -1.912                   1.0401088778234817       -0.6309116332244067      0.1485000046255883       0.5997991923904751       0.9307459652098911       0.15063422105495586      0.6053238722498628       0.9397674063842497
0                         -1.911                   1.0395560909816197       -0.6308305506100287      0.14943158575985055      0.6024961182010766       0.9324163033150085       0.15157477067384686      0.6080235725492766       0.9413453603359734
0                         -1.91                    1.0390061814137692       -0.6307485036172147      0.15036483723221822      0.605178334988337        0.9340866414201253       0.15251693829926483      0.6107077793661856       0.9430028893504138
0                         -1.909                   1.0384591491199309       -0.6306654922459646      0.15129975904269088      0.6078458852113156       0.9357569795252385       0.1534608019365335       0.6133769004578792       0.9447368743173107
0                         -1.908                   1.0379149941001045       -0.6305815164962787      0.15223635119126858      0.6104988111656257       0.9374273176303574       0.15440643653218802      0.6160313276799223       0.9465443159896405
0                         -1.907                   1.0373737163542898       -0.6304965763681568      0.15317461367795163      0.6131371549845255       0.9390976557354725       0.15535391409149965      0.618671437446052        0.9484223303061878
0                         -1.906                   1.036835315882487        -0.6304106718615989      0.15411454650273954      0.615760958639496        0.9407679938405888       0.1563033037913214       0.6212975911777692       0.9503681437135529
0                         -1.905                   1.036299792684696        -0.6303238029766051      0.1550561496656328       0.6183702639412024       0.9424383319457048       0.15725467208825877      0.6239101357442199       0.9523790884886623
0                         -1.904                   1.035767146760917        -0.6302359697131754      0.15599942316663096      0.6209651125399916       0.9441086700508188       0.15820808282215917      0.6265094038903476       0.9544525980608821
0                         -1.903                   1.03523737811115         -0.6301471720713095      0.15694436700573444      0.623545545927035        0.9457790081559341       0.15916359731492769      0.6290957146515807       0.9565862023344269
0                         -1.902                   1.034710486735395        -0.6300574100510079      0.15789098118294284      0.6261116054347547       0.9474493462610531       0.16012127446466093      0.6316693737606083       0.9587775230106177
0                         -1.901                   1.0341864726336516       -0.6299666836522703      0.15883926569825654      0.6286633322376806       0.9491196843661719       0.16108117083510745      0.6342306740455356       0.961024268910129
0                         -1.9                     1.0336653356527425       -0.6298749928484163      0.15978922725146966      0.6312007879202115       0.9521430518025852       0.16204334074048957      0.6367798958136573       0.9633242402246053
0                         -1.899                   1.0331468895178197       -0.6297823297700401      0.16074273572925937      0.6337304635004228       0.9548739037774847       0.16300783636408395      0.6393173071614893       0.9656753521077841
0                         -1.898                   1.032631010780315        -0.6296886972481438      0.1616989750590246       0.6362505699736016       0.9576047557523852       0.16397470779972242      0.6418431645112831       0.9680755315139501
0                         -1.897                   1.0321176994402288       -0.6295940952827273      0.16265794524076435      0.6387611067465012       0.9603356077272875       0.16494400312878013      0.6443577128379709       0.9705228183226993
0                         -1.896                   1.0316069554975607       -0.6294985238737905      0.1636196462744792       0.6412620732259752       0.9630664597021875       0.16591576850866932      0.6468611860739836       0.9730153243616247
0                         -1.895                   1.0310987789523112       -0.6294019830213334      0.1645840781601687       0.6437534688187068       0.9657973116770866       0.16689004824369452      0.6493538074230524       0.9755512312266909
0                         -1.894                   1.0305931698044797       -0.6293044727253563      0.16555124089783357      0.6462352929314638       0.9685281636519891       0.16786688485373297      0.6518357896962735       0.9781287881022149
0                         -1.893                   1.0300901280540669       -0.629205992985859       0.1665211344874727       0.6487075449708298       0.9712590156268889       0.168846319140731        0.6543073356223974       0.9807463095815977
0                         -1.892                   1.029589653701072        -0.6291065438028413      0.16749375892908713      0.6511702243434324       0.9739898676017879       0.16982839025302637      0.65676863816015         0.9834021734871299
0                         -1.891                   1.0290917467454959       -0.6290061251763035      0.1684691142226763       0.6536233304557186       0.9767207195766873       0.1708131357474838       0.6592198807997195       0.986094818690561
0                         -1.89                    1.0285964071873377       -0.6289047371062455      0.16944720036824054      0.6560668627143278       0.9794515715515879       0.17180059164945732      0.6616612378552796       0.988822742933142
0                         -1.889                   1.0281036350265982       -0.6288023795926674      0.1704280173657796       0.6585008205256156       0.982182423526488        0.17279079251056798      0.6640928747442432       0.991584500646058
0                         -1.888                   1.0276134302632767       -0.6286990526355688      0.17141156521529363      0.6609252032960374       0.9849132755013896       0.1737837714643053       0.6665149482764664       0.9943787007705648
0                         -1.887                   1.0271257928973738       -0.6285947562349503      0.17239784391678223      0.6633400104318534       0.9876441274762894       0.17477956027944624      0.6689276069110461       0.9972040045784002
0                         -1.886                   1.026640722928889        -0.6284894903908114      0.17338685347024618      0.6657452413394617       0.990374979451191        0.1757781894112976       0.6713309910271857       1.0000591234918912
0                         -1.885                   1.0261582203578226       -0.6283832551031523      0.17437859387568452      0.668140895425001        0.9931058314260901       0.17677968805075422      0.6737252331709507       1.0029428169042887
0                         -1.884                   1.0256782851841746       -0.628276050371973       0.17537306513309833      0.6705269720948275       0.9958366834009905       0.17778408417118266      0.6761104583064222       1.005853890000003
0                         -1.883                   1.0252009174079448       -0.6281678761972737      0.17637026724248656      0.6729034707550579       0.9985675353758945       0.1787914045731203       0.6784867840453047       1.0087911915750245
0                         -1.882                   1.0247261170291335       -0.6280587325790538      0.17737020020384986      0.6752703908115661       1.001298387350794        0.1798016749267986       0.6808543208879804       1.0117536118568673
0                         -1.881                   1.0242538840477404       -0.627948619517314       0.17837286401718833      0.6776277316706357       1.0040292393256947       0.1808149198124844       0.6832131724348735       1.0147400803250481