% Model:              C2noStructPeEpsMin1Eps002.mph
% Version:            COMSOL 5.6.0.280
% Date:               Apr 22 2021, 16:40
% Dimension:          2
% Nodes:              3001
% Expressions:        5
% Description:        Velocity field, x component, Velocity field, y component, Concentration, Gradient of c2, x component, Gradient of c2, y component
% Length unit:        m
% x                       y                        u (m/s)                  v (m/s)                  u2 (1)                   u2x (1/m)                u2y (1/m)
0                         -2                       0                        0                        2.1773260129789576E-11   -4.238342190444345E-11   1.4661572351576706E-9
0                         -1.999                   0                        0                        2.3289357043349856E-11   1.9311920750477155E-11   1.5660365919632183E-9
0                         -1.998                   0                        0                        2.490533331371604E-11    8.100726340541195E-11    1.66591594876879E-9
0                         -1.997                   0                        0                        2.6621188940887417E-11   1.4270260606033256E-10   1.7657953055743383E-9
0                         -1.996                   0                        0                        2.8436923924864744E-11   2.0439794871526692E-10   1.865674662379909E-9
0                         -1.995                   0                        0                        3.035253826564722E-11    2.660932913701867E-10    1.965554019185458E-9
0                         -1.994                   0                        0                        3.23680319632357E-11     3.27788634025122E-10     2.0654333759910296E-9
0                         -1.993                   0                        0                        3.448340501762926E-11    3.894839766800431E-10    2.165312732796578E-9
0                         -1.992                   0                        0                        3.6698657428828886E-11   4.51179319334976E-10     2.2651920896021486E-9
0                         -1.991                   0                        0                        3.9013789196833546E-11   5.128746619898997E-10    2.3650714464076986E-9
0                         -1.99                    0                        0                        4.1428800321644294E-11   5.745700046448331E-10    2.464950803213269E-9
0                         -1.989                   0                        0                        4.394369080326006E-11    6.362653472997543E-10    2.5648301600188167E-9
0                         -1.988                   0                        0                        4.6558460641681956E-11   6.979606899546878E-10    2.6647095168243886E-9
0                         -1.987                   0                        0                        4.927310983690882E-11    7.596560326096083E-10    2.764588873629937E-9
0                         -1.986                   0                        0                        5.208763838894185E-11    8.213513752645435E-10    2.8644682304355076E-9
0                         -1.985                   0                        0                        5.500204629777981E-11    8.830467179194638E-10    2.9643475872410563E-9
0                         -1.984                   0                        0                        5.8016333563424E-11      9.447420605743988E-10    3.064226944046627E-9
0                         -1.983                   0                        0                        6.113050018587306E-11    1.0064374032293204E-9    3.164106300852176E-9
0                         -1.982                   0                        0                        6.434454616512837E-11    1.0681327458842536E-9    3.2639856576577476E-9
0                         -1.981                   0                        0                        6.765847150118854E-11    1.1298280885391738E-9    3.363865014463296E-9
0                         -1.98                    0                        0                        7.1072276194055E-11      1.1915234311941095E-9    3.4637443712688675E-9
0                         -1.979                   0                        0                        7.458596024372623E-11    1.2532187738490296E-9    3.5636237280744145E-9
0                         -1.978                   0                        0                        7.819952365020386E-11    1.3149141165039643E-9    3.663503084879987E-9
0                         -1.977                   0                        0                        8.191296641348621E-11    1.3766094591588844E-9    3.763382441685535E-9
0                         -1.976                   0                        0                        8.572628853357495E-11    1.4383048018138201E-9    3.8632617984911054E-9
0                         -1.975                   0                        0                        8.96394900104684E-11     1.5000001444687415E-9    3.963141155296654E-9
0                         -1.974                   0                        0                        9.365257084416828E-11    1.5616954871236743E-9    4.063020512102225E-9
0                         -1.973                   0                        0                        9.776553103467284E-11    1.623390829778594E-9     4.162899868907774E-9
0                         -1.972                   0                        0                        1.0197837058198387E-10   1.6850861724335307E-9    4.262779225713344E-9
0                         -1.971                   0                        0                        1.0629108948609953E-10   1.7467815150884515E-9    4.3626585825188954E-9
0                         -1.97                    0                        0                        1.1070368774702169E-10   1.8084768577433858E-9    4.462537939324465E-9
0                         -1.969                   0                        0                        1.1521616536474844E-10   1.870172200398307E-9     4.562417296130012E-9
0                         -1.968                   0                        0                        1.1982852233928175E-10   1.9318675430532416E-9    4.662296652935585E-9
0                         -1.967                   0                        0                        1.245407586706196E-10    1.9935628857081607E-9    4.762176009741134E-9
0                         -1.966                   0                        0                        1.2935287435876404E-10   2.0552582283630976E-9    4.8620553665467045E-9
0                         -1.965                   0                        0                        1.3426486940371297E-10   2.1169535710180192E-9    4.961934723352252E-9
0                         -1.964                   0                        0                        1.392767438054686E-10    2.1786489136729516E-9    5.061814080157825E-9
0                         -1.963                   0                        0                        1.443884975640286E-10    2.2403442563278707E-9    5.1616934369633706E-9
0                         -1.962                   0                        0                        1.4960013067939535E-10   2.3020395989828056E-9    5.2615727937689425E-9
0                         -1.961                   0                        0                        1.548593655289433E-10    1.2632651590368078E-9    4.025937190694491E-9
0                         -1.96                    0                        0                        1.5909636112760782E-10   1.4620236903680234E-9    4.448054006633546E-9
0                         -1.959                   0                        0                        1.6375547354221028E-10   1.6607822216991929E-9    4.870170822572506E-9
0                         -1.958                   0                        0                        1.688367027727529E-10    1.8595407530304039E-9    5.292287638511564E-9
0                         -1.957                   0                        0                        1.743400488192333E-10    2.0582992843615756E-9    5.714404454450525E-9
0                         -1.956                   0                        0                        1.8026551168165404E-10   2.257057815692784E-9     6.136521270389584E-9
0                         -1.955                   0                        0                        1.8661309136001244E-10   2.455816347023954E-9     6.5586380863285415E-9
0                         -1.954                   0                        0                        1.9338278785431128E-10   2.654574878355169E-9     6.9807549022676E-9
0                         -1.953                   0                        0                        2.0057460116454763E-10   2.85333340968634E-9      7.402871718206562E-9
0                         -1.952                   0                        0                        2.081885312907245E-10    3.05209194101755E-9      7.824988534145614E-9
0                         -1.951                   0                        0                        2.1622457823283878E-10   3.250850472348718E-9     8.247105350084578E-9
0                         -1.95                    0                        0                        2.2468274199089374E-10   3.449609003679929E-9     8.669222166023632E-9
0                         -1.949                   0                        0                        2.3356302256488585E-10   3.6483675350111E-9       9.091338981962596E-9
0                         -1.948                   0                        0                        2.4286541995481906E-10   3.847126066342315E-9     9.51345579790165E-9
0                         -1.947                   0                        0                        2.5258993416068917E-10   4.0458845976734874E-9    9.935572613840611E-9
0                         -1.946                   0                        0                        2.627365651825004E-10    4.244643129004696E-9     1.035768942977967E-8
0                         -1.945                   0                        0                        2.733053130202484E-10    4.443401660335867E-9     1.0779806245718627E-8
0                         -1.944                   0                        0                        2.842961776739378E-10    4.642160191667079E-9     1.1201923061657684E-8
0                         -1.943                   0                        0                        2.9570915914356365E-10   4.840918722998247E-9     1.1624039877596647E-8
0                         -1.942                   0                        0                        3.0754425742913125E-10   5.03967725432946E-9      1.2046156693535707E-8
0                         -1.941                   0                        0                        3.19801472530635E-10     5.23843578566063E-9      1.2468273509474663E-8
0                         -1.94                    0                        0                        3.3248080444808063E-10   5.437194316991842E-9     1.2890390325413722E-8
0                         -1.939                   0                        0                        3.455822531814624E-10    5.6359528483230136E-9    1.3312507141352681E-8
0                         -1.938                   0                        0                        3.5910581873078607E-10   5.834711379654228E-9     1.373462395729174E-8
0                         -1.937                   0                        0                        3.730515010960458E-10    6.033469910985387E-9     1.4156740773230699E-8
0                         -1.936                   0                        0                        3.874193002772477E-10    6.232228442316609E-9     1.457885758916976E-8
0                         -1.935                   0                        0                        4.0220921627438523E-10   6.430986973647779E-9     1.5000974405108715E-8
0                         -1.934                   0                        0                        4.174212490874652E-10    6.629745504978985E-9     1.5423091221047774E-8
0                         -1.933                   0                        0                        4.3305539871648073E-10   6.828504036310155E-9     1.584520803698673E-8
0                         -1.932                   0                        0                        4.491116651614388E-10    7.027262567641367E-9     1.626732485292579E-8
0                         -1.931                   0                        0                        4.655900484223323E-10    7.226021098972536E-9     1.668944166886475E-8
0                         -1.93                    0                        0                        4.824905484991685E-10    7.424779630303751E-9     1.7111558484803803E-8
0                         -1.929                   0                        0                        4.998131653919398E-10    7.623538161634922E-9     1.7533675300742776E-8
0                         -1.928                   0                        0                        5.175578991006541E-10    7.822296692966137E-9     1.7955792116681828E-8
0                         -1.927                   0                        0                        5.357247496253034E-10    8.021055224297304E-9     1.837790893262078E-8
0                         -1.926                   0                        0                        5.543137169658958E-10    8.219813755628509E-9     1.8800025748559846E-8
0                         -1.925                   0                        0                        5.73324801122423E-10     8.418572286959688E-9     1.9222142564498805E-8
0                         -1.924                   0                        0                        5.927580020948935E-10    8.6173308182909E-9       1.9644259380437857E-8
0                         -1.923                   0                        0                        6.126133198832987E-10    8.816089349622067E-9     2.0066376196376833E-8
0                         -1.922                   0                        0                        6.325091260978873E-10    4.523551324634456E-9     1.563655024715364E-8
0                         -1.921                   0                        0                        6.489422115404198E-10    5.264624660497471E-9     1.7229620637915386E-8
0                         -1.92                    0                        0                        6.669683673737184E-10    6.0056979963606425E-9    1.882269102867746E-8
0                         -1.919                   0                        0                        6.865875935977745E-10    6.746771332223671E-9     2.0415761419439177E-8
0                         -1.918                   0                        0                        7.07799890212597E-10     7.487844668086863E-9     2.2008831810201263E-8
0                         -1.917                   0                        0                        7.306052572181767E-10    8.228918003949886E-9     2.3601902200962997E-8
0                         -1.916                   0                        0                        7.550036946145237E-10    8.969991339813082E-9     2.5194972591725093E-8
0                         -1.915                   0                        0                        7.809952024016264E-10    9.711064675676092E-9     2.678804298248681E-8
0                         -1.914                   0                        0                        8.085797805794976E-10    1.0452138011539286E-8    2.8381113373248884E-8
0                         -1.913                   0                        0                        8.377574291481242E-10    1.119321134740233E-8     2.997418376401064E-8
0                         -1.912                   0                        0                        8.685281481075191E-10    1.1934284683265504E-8    3.156725415477271E-8
0                         -1.911                   0                        0                        9.008919374576692E-10    1.2675358019128513E-8    3.316032454553443E-8
0                         -1.91                    0                        0                        9.348487971985884E-10    1.3416431354991696E-8    3.475339493629652E-8
0                         -1.909                   0                        0                        9.70398727330262E-10     1.4157504690854729E-8    3.634646532705826E-8
0                         -1.908                   0                        0                        1.0075417278527054E-9    1.489857802671791E-8     3.7939535717820336E-8
0                         -1.907                   0                        0                        1.0462777987659023E-9    1.5639651362580938E-8    3.953260610858207E-8
0                         -1.906                   0                        0                        1.0866069400698701E-9    1.6380724698444132E-8    4.112567649934414E-8
0                         -1.905                   0                        0                        1.1285291517645905E-9    1.712179803430715E-8     4.271874689010587E-8
0                         -1.904                   0                        0                        1.172044433850082E-9     1.7862871370170336E-8    4.431181728086796E-8
0                         -1.903                   0                        0                        1.217152786326326E-9     1.860394470603336E-8     4.5904887671629696E-8
0                         -1.902                   0                        0                        1.263854209193342E-9     1.9345018041896534E-8    4.7497958062391785E-8
0                         -1.901                   0                        0                        1.312148702451109E-9     2.008609137775957E-8     4.9091028453153496E-8
0                         -1.9                     0                        0                        1.3620362660996493E-9    2.082716471362276E-8     5.068409884391559E-8
0                         -1.899                   0                        0                        1.41351690013894E-9      2.1568238049485774E-8    5.227716923467731E-8
0                         -1.898                   0                        0                        1.4665906045690043E-9    2.2309311385348972E-8    5.387023962543939E-8
0                         -1.897                   0                        0                        1.521257379389819E-9     2.3050384721211985E-8    5.5463310016201144E-8
0                         -1.896                   0                        0                        1.5775172246014072E-9    2.379145805707519E-8     5.705638040696321E-8
0                         -1.895                   0                        0                        1.6353701402037452E-9    2.45325313929382E-8      5.864945079772496E-8
0                         -1.894                   0                        0                        1.6948161261968573E-9    2.527360472880139E-8     6.024252118848704E-8
0                         -1.893                   0                        0                        1.7558551825807185E-9    2.6014678064664416E-8    6.183559157924875E-8
0                         -1.892                   0                        0                        1.8184873093553554E-9    2.6755751400527577E-8    6.342866197001085E-8
0                         -1.891                   0                        0                        1.88271250652074E-9      2.7496824736390617E-8    6.502173236077257E-8
0                         -1.89                    0                        0                        1.9485307740769015E-9    2.8237898072253798E-8    6.661480275153467E-8
0                         -1.889                   0                        0                        2.0159421120238095E-9    2.8978971408116817E-8    6.820787314229639E-8
0                         -1.888                   0                        0                        2.084946520361494E-9     2.9720044743980035E-8    6.980094353305846E-8
0                         -1.887                   0                        0                        2.1555439990899258E-9    3.0461118079843015E-8    7.13940139238202E-8
0                         -1.886                   0                        0                        2.2277345482091353E-9    3.120219141570623E-8     7.298708431458228E-8
0                         -1.885                   0                        0                        2.301518167719091E-9     3.1943264751569245E-8    7.4580154705344E-8
0                         -1.884                   0                        0                        2.376894857619824E-9     3.268433808743243E-8     7.61732250961061E-8
0                         -1.883                   0                        0                        2.451876080404418E-9     1.8368431871764395E-8    6.099836832146017E-8
0                         -1.882                   0                        0                        2.515768086992318E-9     2.0939522199925998E-8    6.678564485432486E-8
0                         -1.881                   0                        0                        2.5854473701130666E-9    2.3510612528086962E-8    7.257292138718824E-8
0                         -1.88                    0                        0                        2.660913929766695E-9     2.608170285624848E-8     7.836019792005287E-8
0                         -1.879                   0                        0                        2.742167765953171E-9     2.8652793184409497E-8    8.414747445291633E-8
0                         -1.8780000000000001      0                        0                        2.829208878672509E-9     3.1223883512570435E-8    8.993475098577972E-8
0                         -1.877                   0                        0                        2.922037267924732E-9     3.379497384073199E-8     9.572202751864432E-8
0                         -1.876                   0                        0                        3.0206529337098194E-9    3.636606416889352E-8     1.0150930405150902E-7
0                         -1.875                   0                        0                        3.1250558760277486E-9    3.8937154497054547E-8    1.0729658058437242E-7
0                         -1.874                   0                        0                        3.2352460948785406E-9    4.1508244825215564E-8    1.1308385711723581E-7
0                         -1.873                   0                        0                        3.3512235902622212E-9    4.407933515337712E-8     1.1887113365010047E-7
0                         -1.8719999999999999      0                        0                        3.4729883621787682E-9    4.665042548153865E-8     1.246584101829652E-7
0                         -1.871                   0                        0                        3.6005404106281506E-9    4.92215158096996E-8      1.3044568671582855E-7
0                         -1.87                    0                        0                        3.733879735610397E-9     5.1792606137860614E-8    1.3623296324869202E-7
0                         -1.869                   0                        0                        3.873006337125537E-9     5.436369646602217E-8     1.4202023978155668E-7
0                         -1.8679999999999999      0                        0                        4.0179202151735424E-9    5.693478679418378E-8     1.4780751631442134E-7
0                         -1.867                   0                        0                        4.168621369754378E-9     5.950587712234473E-8     1.5359479284728476E-7
0                         -1.866                   0                        0                        4.325109800868077E-9     6.207696745050569E-8     1.5938206938014815E-7
0                         -1.865                   0                        0                        4.487385508514677E-9     6.464805777866726E-8     1.6516934591301279E-7
0                         -1.8639999999999999      0                        0                        4.65544849269414E-9      6.721914810682893E-8     1.7095662244587747E-7
0                         -1.863                   0                        0                        4.8292987534064306E-9    6.979023843498986E-8     1.7674389897874092E-7
0                         -1.862                   0                        0                        5.0089362906515835E-9    7.236132876315088E-8     1.8253117551160428E-7
0                         -1.861                   0                        0                        5.19436110442964E-9      7.493241909131233E-8     1.8831845204446892E-7
0                         -1.8599999999999999      0                        0                        5.385573194740564E-9     7.750350941947398E-8     1.9410572857733366E-7
0                         -1.859                   0                        0                        5.582572561584308E-9     8.007459974763494E-8     1.9989300511019707E-7
0                         -1.858                   0                        0                        5.785359204960914E-9     8.264569007579588E-8     2.0568028164306046E-7
0                         -1.857                   0                        0                        5.993933124870428E-9     8.521678040395754E-8     2.1146755817592507E-7
0                         -1.8559999999999999      0                        0                        6.208294321312811E-9     8.778787073211912E-8     2.1725483470878981E-7
0                         -1.855                   0                        0                        6.428442794288009E-9     9.035896106028008E-8     2.2304211124165326E-7
0                         -1.854                   0                        0                        6.65437854379607E-9      9.293005138844101E-8     2.288293877745166E-7
0                         -1.853                   0                        0                        6.886101569837044E-9     9.550114171660256E-8     2.3461666430738123E-7
0                         -1.852                   0                        0                        7.12361187241083E-9      9.807223204476347E-8     2.4040394084024457E-7
0                         -1.851                   0                        0                        7.366909451517535E-9     1.0064332237292502E-7    2.461912173731094E-7
0                         -1.85                    0                        0                        7.615994307157048E-9     1.0321441270108618E-7    2.519784939059727E-7
0                         -1.849                   0                        0                        7.870866439329482E-9     1.0578550302924764E-7    2.577657704388373E-7
0                         -1.848                   0                        0                        8.131525848034721E-9     1.0835659335740864E-7    2.635530469717007E-7
0                         -1.847                   0                        0                        8.397972533272885E-9     1.1092768368557014E-7    2.693403235045655E-7
0                         -1.846                   0                        0                        8.670206495043852E-9     1.1349877401373115E-7    2.751276000374289E-7
0                         -1.845                   0                        0                        8.948227733347745E-9     1.1606986434189282E-7    2.8091487657029357E-7
0                         -1.844                   0                        0                        9.22317360779391E-9      6.862392903545552E-8     2.3096553044278075E-7
0                         -1.843                   0                        0                        9.464296356528798E-9     7.733827605341069E-8     2.5127996702693824E-7
0                         -1.842                   0                        0                        9.725733541847782E-9     8.605262307136423E-8     2.7159440361109086E-7
0                         -1.841                   0                        0                        1.0007485163750987E-8    9.476697008931949E-8     2.9190884019524845E-7
0                         -1.84                    0                        0                        1.0309551222238278E-8    1.0348131710727299E-7    3.1222327677940133E-7
0                         -1.839                   0                        0                        1.0631931717309793E-8    1.1219566412522843E-7    3.325377133635589E-7
0                         -1.838                   0                        0                        1.0974626648965394E-8    1.209100111431819E-7     3.5285214994771176E-7
0                         -1.837                   0                        0                        1.1337636017205223E-8    1.2962435816113732E-7    3.731665865318692E-7
0                         -1.836                   0                        0                        1.1720959822029127E-8    1.3833870517909082E-7    3.9348102311602213E-7
0                         -1.835                   0                        0                        1.2124598063437272E-8    1.470530521970464E-7     4.137954597001797E-7
0                         -1.834                   0                        0                        1.2548550741429483E-8    1.5576739921499987E-7    4.3410989628433245E-7
0                         -1.833                   0                        0                        1.2992817856005943E-8    1.6448174623295514E-7    4.544243328684899E-7
0                         -1.832                   0                        0                        1.3457399407166459E-8    1.7319609325090842E-7    4.747387694526428E-7
0                         -1.831                   0                        0                        1.3942295394911238E-8    1.8191044026886406E-7    4.950532060368002E-7