% Model:              C2DNSEps01Pe1.mph
% Version:            COMSOL 5.6.0.280
% Date:               Apr 22 2021, 17:05
% Dimension:          2
% Nodes:              4001
% Expressions:        5
% Description:        Velocity field, x component, Velocity field, y component, , , Gradient of c, y component
% Length unit:        m
% x                       y                        u (m/s)                  v (m/s)                  u2 (1)                   u2x (1/m)                u2y (1/m)
-1                        -0.5                     1                        -5.699157243350037E-15   1                        -4.533109727589135E-7    3.552713678800501E-15
-0.999                    -0.5                     0.9999955787334296       -1.0546940871622161E-7   0.9999999995250046       -4.966798705652309E-7    -2.184918912462308E-12
-0.998                    -0.5                     0.9999851478935018       -2.1076257939366664E-7   0.9999999990066404       -5.400487737006188E-7    -4.369837824924616E-12
-0.997                    -0.5                     0.9999687074802164       -3.1587951773144645E-7   0.9999999984449071       -5.834176857177908E-7    -6.558309451065725E-12
-0.996                    -0.5                     0.9999462574935736       -4.208202237295944E-7    0.9999999978398049       -6.267865888531787E-7    -8.736122936170432E-12
-0.995                    -0.5                     0.999917797933573        -5.255846973881003E-7    0.9999999971913337       -6.701554937649234E-7    -1.0931699989669141E-11
-0.994                    -0.5                     0.9998833288002155       -6.301729387069165E-7    0.9999999964994942       -7.135244040057387E-7    -1.3105960761095048E-11
-0.993                    -0.5                     0.9998428500935002       -7.345849476860339E-7    0.9999999957642851       -7.568933124701971E-7    -1.5303314171433158E-11
-0.992                    -0.5                     0.9997963618134273       -8.388207243256049E-7    0.9999999949857072       -8.002622120528713E-7    -1.7479351299698465E-11
-0.991                    -0.5                     0.999743863959997        -9.42880268625521E-7     0.9999999941637606       -8.436311160764376E-7    -1.9660717498481972E-11
-0.99                     -0.5                     0.9996853565332093       -1.0467635805857856E-6   0.9999999932984451       -8.870000272054313E-7    -2.184918912462308E-11
-0.989                    -0.5                     0.9996208395330639       -1.15047066020645E-6     0.9999999923897605       -9.303689312289976E-7    -2.403854892918389E-11
-0.988                    -0.5                     0.9995503129595612       -1.2540015074873508E-6   0.9999999914377072       -9.73737841913902E-7     -2.6224356020065898E-11
-0.987                    -0.5                     0.999473776812701        -1.3573561224286054E-6   0.9999999904422848       -1.0171067459374683E-6   -2.8403057683590305E-11
-0.986                    -0.5                     0.9993912310924833       -1.4605345050302034E-6   0.9999999894034937       -1.060475657066462E-6    -3.058842068526246E-11
-0.985                    -0.5                     0.9993026757989081       -1.5635366552922569E-6   0.9999999883213337       -1.1038445680844333E-6   -3.2777558445218347E-11
-0.984                    -0.5                     0.9992081109319753       -1.6663625732147096E-6   0.9999999871958047       -1.1472134578416338E-6   -3.4956260108742754E-11
-0.983                    -0.5                     0.9991075364916852       -1.7690122587972974E-6   0.9999999860269065       -1.1905823760205436E-6   -3.714206719962476E-11
-0.982                    -0.5                     0.9990009524780373       -1.8714857120404997E-6   0.9999999848146398       -1.2339512780457085E-6   -3.934541581429585E-11
-0.981                    -0.5                     0.9988883588910322       -1.9737829329438865E-6   0.9999999835590039       -1.2773201820692748E-6   -4.1519676585721754E-11
-0.98                     -0.5                     0.9987697557306694       -2.0759039215077806E-6   0.9999999822599994       -1.3206890914219116E-6   -4.3719694531318964E-11
-0.979                    -0.5                     0.9986451429969494       -2.1778486777319186E-6   0.9999999809176259       -1.3640580025509053E-6   -4.589928437326307E-11
-0.978                    -0.5                     0.9985145206898718       -2.2796172016162933E-6   0.9999999795318837       -1.4074269101271852E-6   -4.8057557933134376E-11
-0.977                    -0.5                     0.9983778888094366       -2.381209493161286E-6    0.9999999781027722       -1.4507958177034652E-6   -5.0254911343472486E-11
-0.976                    -0.5                     0.9982352473556441       -2.4826255523665142E-6   0.9999999766302917       -1.4941647012989279E-6   -5.2436277542255993E-11
-0.975                    -0.5                     0.9980865963284938       -2.58386537923204E-6     0.9999999751144425       -1.537533623974241E-6    -5.4642512736791105E-11
-0.974                    -0.5                     0.9979319357279863       -2.684928973757912E-6    0.9999999735552247       -1.5809025324386994E-6   -5.682565529241401E-11
-0.973                    -0.5                     0.9977712655541212       -2.7858163359440777E-6   0.9999999719526375       -1.6242714568903693E-6   -5.900702149119752E-11
-0.972                    -0.5                     0.9976045858068988       -2.8865274657907495E-6   0.9999999703066816       -1.6676403227222636E-6   -6.119904583101743E-11
-0.971                    -0.5                     0.9974318964863186       -2.98706236329769E-6     0.9999999686173567       -1.711009263161145E-6    -6.336264846140693E-11
-0.97                     -0.5                     0.997253197592381        -3.087421028465018E-6    0.999999966884663        -1.7543781485329646E-6   -6.555822551490564E-11
-0.969                    -0.5                     0.997068489125086        -3.187603461292679E-6    0.9999999651086007       -1.7977470587737798E-6   -6.775380256840435E-11
-0.968                    -0.5                     0.9968779561049218       -3.287600385854392E-6    0.9999999635012844       -1.3687590431342764E-6   -4.985627272583577E-12
-0.967                    -0.5                     0.9966820440037892       -3.387417031482806E-6    0.9999999620681945       -1.4974202903608519E-6   -1.9148969330422E-11
-0.966                    -0.5                     0.9964806633402248       -3.487068811930771E-6    0.9999999605064438       -1.626081548245568E-6    -3.335139123872723E-11
-0.965                    -0.5                     0.9962738141142284       -3.5865557271982613E-6   0.9999999588160318       -1.7547428061302846E-6   -4.750052244185045E-11
-0.964                    -0.5                     0.9960614963258005       -3.685877777285263E-6    0.9999999569969582       -1.8834040480277896E-6   -6.167452264072528E-11
-0.963                    -0.5                     0.9958437099749404       -3.785034962191911E-6    0.9999999550492236       -2.0120653201233608E-6   -7.586273369489897E-11
-0.962                    -0.5                     0.9956204550616485       -3.884027281918109E-6    0.9999999529728276       -2.1407265673499364E-6   -9.00260757527374E-11
-0.961                    -0.5                     0.9953917315859251       -3.982854736463585E-6    0.9999999507677705       -2.2693878039183702E-6   -1.0420185230815979E-10
-0.96                     -0.5                     0.9951575395477696       -4.08151732582873E-6     0.9999999484340522       -2.398049067132158E-6    -1.1836874708026067E-10
-0.959                    -0.5                     0.994917878947182        -4.1800150500133695E-6   0.9999999459716722       -2.5267103232405173E-6   -1.3256406356091648E-10
-0.958                    -0.5                     0.9946727497841629       -4.278347909017569E-6    0.9999999433806315       -2.6553715784606983E-6   -1.467043129798427E-10
-0.957                    -0.5                     0.9944221520587119       -4.3765159028412314E-6   0.9999999406609291       -2.7840328336808797E-6   -1.6090229399634125E-10
-0.956                    -0.5                     0.9941660857708288       -4.474519031484259E-6    0.9999999378125656       -2.912694096894667E-6    -1.750816232658802E-10
-0.955                    -0.5                     0.9939045509205139       -4.572357294946662E-6    0.9999999348355411       -3.041355340568529E-6    -1.8924363305674568E-10
-0.954                    -0.5                     0.9936375475077673       -4.670030693229363E-6    0.999999931729855        -3.170016588905327E-6    -2.0341585689892702E-10
-0.953                    -0.5                     0.9933650755325889       -4.767539226330919E-6    0.9999999284955077       -3.298677839296038E-6    -2.1759551923495384E-10
-0.952                    -0.5                     0.9930871349949788       -4.864882894252588E-6    0.9999999251324992       -3.4273391022322695E-6   -2.3177540361602334E-10
-0.951                    -0.5                     0.9928037258949363       -4.962061696993503E-6    0.9999999216408295       -3.556000354343826E-6    -2.459374134064146E-10
-0.95                     -0.5                     0.9925148482324623       -5.059075634553773E-6    0.9999999180204987       -3.6846616135608104E-6   -2.6011318996227476E-10
-0.949                    -0.5                     0.9922205020075564       -5.1559247069335155E-6   0.9999999142715065       -3.813322866116456E-6    -2.742854138044561E-10
-0.948                    -0.5                     0.9919206872202186       -5.2526089141330564E-6   0.9999999103938529       -3.941984118228013E-6    -2.8845852582505714E-10
-0.947                    -0.5                     0.9916154038704488       -5.349128256151735E-6    0.9999999063875381       -4.070645377889087E-6    -3.0263785509474197E-10
-0.946                    -0.5                     0.9913046519582476       -5.445482732990104E-6    0.9999999022525621       -4.199306629556554E-6    -3.168136316504562E-10
-0.945                    -0.5                     0.9909884314836143       -5.541672344648163E-6    0.9999998979889249       -4.327967888329449E-6    -3.3098585549278344E-10
-0.944                    -0.5                     0.9906667424465491       -5.637697091125684E-6    0.9999998935966264       -4.4566291328914895E-6   -3.4516340840562893E-10
-0.943                    -0.5                     0.9903395848470521       -5.733556972423005E-6    0.9999998890756668       -4.585290385447135E-6    -3.5932497410662797E-10
-0.942                    -0.5                     0.990006958685123        -5.829251988540135E-6    0.9999998844260457       -4.713951641555495E-6    -3.735060797319849E-10
-0.941                    -0.5                     0.9896688639607621       -5.924782139475877E-6    0.9999998796477633       -4.842612897663855E-6    -3.8767652721834825E-10
-0.94                     -0.5                     0.9893253006739696       -6.0201474252318945E-6   0.9999998747408197       -4.9712741537722136E-6   -4.018505274166394E-10
-0.9390000000000001       -0.5                     0.9889762688247452       -6.11534784580657E-6     0.9999998697052149       -5.099935408104198E-6    -4.1602808030000987E-10
-0.938                    -0.5                     0.9886217684130889       -6.21038340120128E-6     0.9999998645409489       -5.2285966748707175E-6   -4.3020208052923515E-10
-0.937                    -0.5                     0.9882617994390008       -6.305254091415904E-6    0.9999998592480218       -5.357257914991847E-6    -4.4436897526981827E-10
-0.9359999999999999       -0.5                     0.9878966656357534       -6.399962486297724E-6    0.9999998539399657       -5.383235832793649E-6    -4.637195542914739E-10
-0.935                    -0.5                     0.9875265513219446       -6.494517428173131E-6    0.9999998484592411       -5.578213245476988E-6    -4.838735368022531E-10
-0.9339999999999999       -0.5                     0.987151440879007        -6.588919314643938E-6    0.9999998427835392       -5.773190661713077E-6    -5.04031072085071E-10
-0.933                    -0.5                     0.9867713343069414       -6.683168145707269E-6    0.9999998369128598       -5.968168083278201E-6    -5.241886073089454E-10
-0.9319999999999999       -0.5                     0.9863862316057473       -6.7772639213659015E-6   0.9999998308472028       -6.163145497737933E-6    -5.443568007327999E-10
-0.931                    -0.5                     0.9859961327754246       -6.871206641617837E-6    0.9999998245865687       -6.358122912197629E-6    -5.645178886697694E-10
-0.9299999999999999       -0.5                     0.985601037815974        -6.964996306464632E-6    0.9999998181309574       -6.553100333762789E-6    -5.846718712389087E-10
-0.929                    -0.5                     0.9852009467273947       -7.058632915905116E-6    0.9999998114803684       -6.7480777491106635E-6   -6.048258537491042E-10
-0.9279999999999999       -0.5                     0.9847958595096866       -7.152116469938511E-6    0.9999998046348018       -6.943055166234932E-6    -6.249851653893452E-10
-0.927                    -0.5                     0.9843857761628498       -7.2454469685666475E-6   0.9999997975942576       -7.138032586023698E-6    -6.451462533257312E-10
-0.926                    -0.5                     0.9839706966868853       -7.33862441178926E-6     0.9999997903587364       -7.333010002259769E-6    -6.652940186168984E-10
-0.925                    -0.5                     0.983550621081792        -7.43164879960529E-6     0.9999997829282379       -7.527987418939929E-6    -6.854559947626348E-10
-0.924                    -0.5                     0.9831255493475702       -7.52452013201453E-6     0.9999997753027617       -7.722964842281428E-6    -7.056144181946925E-10
-0.923                    -0.5                     0.9826954814842199       -7.6172384090198E-6      0.999999767482308        -7.917942255408874E-6    -7.257790588748127E-10
-0.922                    -0.5                     0.9822604174917418       -7.709803630616665E-6    0.9999997594668774       -8.112919668536322E-6    -7.459345957279182E-10
-0.921                    -0.5                     0.9818203573701346       -7.802215796809222E-6    0.9999997512564688       -8.307897095680334E-6    -7.660892444007713E-10
-0.92                     -0.5                     0.9813753011193987       -7.894474907595533E-6    0.999999742851083        -8.502874510334337E-6    -7.862476678323639E-10
-0.919                    -0.5                     0.9809252487395351       -7.986580962976158E-6    0.9999997342507199       -8.69785192523814E-6     -8.064096439776261E-10
-0.918                    -0.5                     0.9804702002305424       -8.078533962949758E-6    0.999999725455379        -8.892829350355997E-6    -8.265711760346635E-10
-0.917                    -0.5                     0.9800101555924219       -8.170333907517248E-6    0.9999997164650611       -9.08780675993073E-6     -8.46750915748794E-10
-0.916                    -0.5                     0.9795451148251725       -8.261980796679448E-6    0.9999997072797655       -9.282784185048584E-6    -8.668915756118741E-10
-0.915                    -0.5                     0.9790750779287949       -8.353474630435409E-6    0.9999996978994926       -9.477761602172835E-6    -8.870473345086727E-10
-0.914                    -0.5                     0.9786000449032884       -8.444815408785893E-6    0.9999996883242422       -9.672739023737976E-6    -9.0720131704834E-10
-0.913                    -0.5                     0.9781200157486541       -8.536003131729782E-6    0.9999996785540146       -9.867716425763192E-6    -9.27376615870372E-10
-0.912                    -0.5                     0.977634990464891        -8.627037799267868E-6    0.9999996685888095       -1.0062693854433762E-5   -9.475057294145796E-10
-0.911                    -0.5                     0.9771449690519995       -8.71791941140027E-6     0.9999996584286271       -1.0257671263564406E-5   -9.67668593738444E-10
-0.91                     -0.5                     0.9766499515099794       -8.80864796812673E-6     0.9999996480734672       -1.0452648695787688E-5   -9.878545507009287E-10
-0.909                    -0.5                     0.9761499378388309       -8.899223469446583E-6    0.9999996375233294       -1.0647626103141974E-5   -1.0080014278129469E-9
-0.908                    -0.5                     0.9756449280385542       -8.989645915360775E-6    0.9999996267782147       -1.0842603526483474E-5   -1.028155410352906E-9
-0.907                    -0.5                     0.9751349221091488       -9.079915305868912E-6    0.9999996158381226       -1.1037580939166831E-5   -1.0483200510339015E-9
-0.906                    -0.5                     0.9746199200506152       -9.170031640971078E-6    0.9999996047030529       -1.1232558355402902E-5   -1.068477586286956E-9
-0.905                    -0.5                     0.9741000236373967       -9.259991066373993E-6    0.9999995938598306       -9.829597249777582E-6    -8.226388201980646E-10
-0.904                    -0.5                     0.9735756799391263       -9.349791331307925E-6    0.9999995837859783       -1.0318107607851519E-5   -9.032665123394688E-10
-0.903                    -0.5                     0.9730468143711972       -9.439443224718865E-6    0.9999995732236157       -1.080661798013631E-5    -9.838480192107524E-10
-0.902                    -0.5                     0.9725134269336102       -9.528946746606834E-6    0.9999995621727422       -1.1295128348868386E-5   -1.064472158638478E-9
-0.901                    -0.5                     0.9719755176263646       -9.618301896971305E-6    0.999999550633359        -1.1783638703389611E-5   -1.1451140616384492E-9
-0.9                      -0.5                     0.9714330864494606       -9.707508675812843E-6    0.999999538605465        -1.2272149070345329E-5   -1.2257382010661748E-9
-0.899                    -0.5                     0.9708861334028981       -9.79656708313148E-6     0.9999995260890604       -1.276065944263012E-5    -1.3063783277112328E-9
-0.898                    -0.5                     0.9703346584866777       -9.885477118926588E-6    0.999999513084146        -1.3249169806033126E-5   -1.38697937449812E-9
-0.897                    -0.5                     0.9697786617007985       -9.974238783198341E-6    0.9999994995907213       -1.3737680163218884E-5   -1.4676123957138944E-9
-0.896                    -0.5                     0.969218143045261        -1.0062852075947939E-5   0.9999994856087857       -1.4226190515075572E-5   -1.548229429718114E-9
-0.895                    -0.5                     0.9686531025200654       -1.0151316997173392E-5   0.9999994711383402       -1.4714700874037686E-5   -1.628855345504605E-9
-0.894                    -0.5                     0.9680835401252114       -1.0239633546876358E-5   0.9999994561793841       -1.5203211248987014E-5   -1.7094812612930219E-9
-0.893                    -0.5                     0.9675094558606985       -1.0327801725055943E-5   0.9999994407319176       -1.5691721616830912E-5   -1.790100071651192E-9
-0.892                    -0.5                     0.9669308497265275       -1.0415821531712747E-5   0.9999994247959407       -1.6180231984674808E-5   -1.870707335690869E-9
-0.891                    -0.5                     0.9663477217226982       -1.0503692966846388E-5   0.9999994083714535       -1.6668742352074618E-5   -1.9513376923684955E-9
-0.89                     -0.5                     0.9657600718492106       -1.0591416030457504E-5   0.9999993914584561       -1.715725270565215E-5    -2.03196027748507E-9
-0.889                    -0.5                     0.9651679001060647       -1.0678990722543466E-5   0.999999374056948        -1.764576307876961E-5    -2.112586415318453E-9
-0.888                    -0.5                     0.9645712064932604       -1.0766417043107847E-5   0.9999993561669298       -1.8134273439397057E-5   -2.1932047815878944E-9
-0.887                    -0.5                     0.9639699910107977       -1.0853694992148081E-5   0.9999993377884013       -1.86227838034662E-5     -2.273828032843941E-9
-0.886                    -0.5                     0.9633642536586766       -1.0940824569666123E-5   0.9999993189213623       -1.9111294157099243E-5   -2.354456613165691E-9
-0.885                    -0.5                     0.962753994436897        -1.1027805775661677E-5   0.9999992995658128       -1.959980453560128E-5    -2.43507631169554E-9
-0.884                    -0.5                     0.9621392133454592       -1.111463861013251E-5    0.9999992797217532       -2.0088314892787038E-5   -2.5157031156662285E-9
-0.883                    -0.5                     0.9615199103843631       -1.1201323073080461E-5   0.9999992593891833       -2.057682525352551E-5    -2.596314820598004E-9
-0.882                    -0.5                     0.9608960855536083       -1.128785916450586E-5    0.9999992385681026       -2.1065335624922127E-5   -2.676940736388347E-9
-0.881                    -0.5                     0.9602677388531955       -1.1374246884407435E-5   0.9999992172585119       -2.1553845985660596E-5   -2.757563099461159E-9
-0.88                     -0.5                     0.9596348702831242       -1.1460486232785628E-5   0.9999991954604108       -2.2042356350839963E-5   -2.838189015253428E-9
-0.879                    -0.5                     0.9589974798433945       -1.1546577209641513E-5   0.999999173173799        -2.2530866716019327E-5   -2.9188096019694E-9
-0.878                    -0.5                     0.9583555675340063       -1.1632519814973883E-5   0.9999991503986772       -2.3019377077645974E-5   -2.999433741397126E-9
-0.877                    -0.5                     0.9577091333549603       -1.171831404878395E-5    0.9999991271350452       -2.3507887446378052E-5   -3.0800507753974935E-9
-0.876                    -0.5                     0.9570581773062551       -1.18039599110693E-5     0.9999991033829021       -2.3996397802675636E-5   -3.1606820202602804E-9
-0.875                    -0.5                     0.956402699387892        -1.1889457401833742E-5   0.9999990791422494       -2.4484908169631353E-5   -3.2412990542645004E-9
-0.874                    -0.5                     0.9557426995998706       -1.1974806521073569E-5   0.999999054413086        -2.4973418531258E-5      -3.3219231936922257E-9
-0.873                    -0.5                     0.9550783620044933       -1.2060009765232847E-5   0.9999990294289521       -2.5173079237543076E-5   -3.416319794766882E-9
-0.872                    -0.5                     0.9544099043085426       -1.2145068888139606E-5   0.9999990039682484       -2.5748328564710796E-5   -3.5158409763848563E-9
-0.871                    -0.5                     0.9537373102957287       -1.2229983481745293E-5   0.9999989779322949       -2.6323577907865736E-5   -3.6153621580105333E-9
-0.87                     -0.5                     0.953060579966052        -1.2314753546052545E-5   0.9999989513210922       -2.689882724924431E-5    -3.7148797869148285E-9
-0.869                    -0.5                     0.9523797133195125       -1.239937908106005E-5    0.9999989241346404       -2.7474076581741116E-5   -3.814411626685393E-9
-0.868                    -0.5                     0.9516947103561099       -1.248386008677014E-5    0.9999988963729389       -2.8049325921343335E-5   -3.913929255589689E-9
-0.867                    -0.5                     0.9510055710758447       -1.2568196563182424E-5   0.9999988680359885       -2.8624575268050985E-5   -4.0134539899194155E-9
-0.866                    -0.5                     0.9503122954787162       -1.2652388510294811E-5   0.9999988391237884       -2.9199824591666E-5      -4.112978724256846E-9
-0.865                    -0.5                     0.9496148835647251       -1.2736435928108164E-5   0.9999988096363392       -2.977507393393276E-5    -4.212499905882523E-9
-0.864                    -0.5                     0.948913335333871        -1.2820338816622088E-5   0.9999987795736407       -3.0350323270870446E-5   -4.312021087506274E-9
-0.863                    -0.5                     0.9482076507861538       -1.2904097175838852E-5   0.9999987489356927       -3.092557261047267E-5    -4.411545821837927E-9
-0.862                    -0.5                     0.947497829921574        -1.2987711005755829E-5   0.9999987177224956       -3.1500821947410355E-5   -4.511059009855901E-9
-0.861                    -0.5                     0.946783872740131        -1.307118030637312E-5    0.9999986859340486       -3.207607128434805E-5    -4.610590849620688E-9
-0.86                     -0.5                     0.9460657792418252       -1.315450507769394E-5    0.9999986535703529       -3.265132063149979E-5    -4.7101124753278724E-9
-0.859                    -0.5                     0.9453435494266565       -1.323768531971407E-5    0.9999986206314074       -3.322656996088796E-5    -4.8096334349072596E-9
-0.858                    -0.5                     0.9446171832946253       -1.3320721032436463E-5   0.9999985871172131       -3.3801819304535555E-5   -4.909158252511657E-9
-0.857                    -0.5                     0.9438866808457305       -1.3403612215858994E-5   0.9999985530277691       -3.437706864275694E-5    -5.0086760201967194E-9
-0.856                    -0.5                     0.9431520420799732       -1.3486358869983141E-5   0.9999985183630756       -3.495231798835437E-5    -5.108186543676545E-9
-0.855                    -0.5                     0.9424132669973528       -1.3568960994808904E-5   0.999998483123133        -3.552756732507001E-5    -5.207725932958382E-9
-0.854                    -0.5                     0.9416703555978697       -1.3651418590335019E-5   0.9999984473079412       -3.6102816665116325E-5   -5.3072400091547755E-9
-0.853                    -0.5                     0.9409233078815236       -1.3733731656563147E-5   0.9999984109174997       -3.667806599317223E-5    -5.406743427207244E-9
-0.852                    -0.5                     0.9401721238483144       -1.38159001934921E-5     0.999998373951809        -3.7253315332774456E-5   -5.5062770433288715E-9
-0.851                    -0.5                     0.9394168034982424       -1.3897924201123139E-5   0.9999983364108689       -3.782856467326486E-5    -5.605808883091733E-9
-0.85                     -0.5                     0.9386573468313076       -1.3979803679454495E-5   0.9999982982946799       -3.840381401641979E-5    -5.705335393786002E-9
-0.849                    -0.5                     0.9378937538475098       -1.4061538628486636E-5   0.999998259603241        -3.897906334891659E-5    -5.804854799050989E-9
-0.848                    -0.5                     0.9371260245468492       -1.4143129048221223E-5   0.9999982203365528       -3.9554312683189746E-5   -5.904370651602296E-9
-0.847                    -0.5                     0.9363541589293256       -1.4224574938656093E-5   0.9999981804946158       -4.012956203877918E-5    -6.0039167022198735E-9
-0.846                    -0.5                     0.9355781569949391       -1.4305876299792992E-5   0.9999981400774289       -4.070481136417055E-5    -6.10343433112802E-9
-0.845                    -0.5                     0.9347980187436897       -1.4387033131630209E-5   0.999998099084993        -4.128006070732548E-5    -6.20294130189513E-9
-0.844                    -0.5                     0.9340137441755774       -1.4468045434169323E-5   0.9999980575173074       -4.185531003804593E-5    -6.302458930803277E-9
-0.843                    -0.5                     0.9332253332906021       -1.4548913207409173E-5   0.9999980153743727       -4.243055938830629E-5    -6.401980112425103E-9
-0.842                    -0.5                     0.9324328234871428       -1.4629635966399992E-5   0.9999979732317075       -3.948514395986194E-5    -5.801041002322767E-9
-0.841                    -0.5                     0.9316366179134966       -1.4710211456862125E-5   0.99999793311878         -4.074071151557517E-5    -6.094327693304115E-9
-0.84                     -0.5                     0.9308366991313893       -1.4790642053876827E-5   0.9999978917502846       -4.1996279069512036E-5   -6.387600173399964E-9
-0.839                    -0.5                     0.9300330671408205       -1.4870927757444586E-5   0.9999978491262217       -4.325184662522526E-5    -6.680886864365921E-9
-0.838                    -0.5                     0.9292257219417901       -1.4951068567563844E-5   0.9999978052465913       -4.450741417916214E-5    -6.974173555347269E-9
-0.837                    -0.5                     0.9284146635342988       -1.5031064484236216E-5   0.9999977601113933       -4.5762981733099E-5      -7.267463799026904E-9
-0.836                    -0.5                     0.9275998919183461       -1.511091550746018E-5    0.9999977137206278       -4.7018549260390516E-5   -7.560709633785554E-9
-0.835                    -0.5                     0.926781407093932        -1.5190621637237258E-5   0.9999976660742945       -4.827411682320918E-5    -7.854010535613923E-9
-0.834                    -0.5                     0.9259592090610566       -1.527018287356726E-5    0.9999976171723941       -4.95296843664879E-5     -8.147291897501665E-9
-0.833                    -0.5                     0.9251332978197198       -1.5349599216448394E-5   0.9999975670149259       -5.078525192486567E-5    -8.44058569391037E-9
-0.832                    -0.5                     0.9243036733699216       -1.5428870665881306E-5   0.9999975156018905       -5.2040819461927145E-5   -8.733865279456666E-9