% Model:              C1fullScalePeEpsMin1.mph
% Version:            COMSOL 5.6.0.280
% Date:               May 4 2021, 11:01
% Dimension:          2
% Nodes:              1001
% Expressions:        6
% Description:        Velocity field, x component, Velocity field, y component, Dependent variable u2, Gradient of u2, x component, Gradient of u2, y component, 
% Length unit:        m
% x                       y                        u (m/s)                  v (m/s)                  u2 (1)                   u2x (1/m)                u2y (1/m)                -u*u2+u2x
0                         -0.5                     2.5490780495821814E-15   3.755528403971231E-20    0.3916162558804182       -1.8109188193663133      0.03916116103379541      -1.8109188193663142
0                         -0.499                   0.07078735316862603      3.746629326388625E-7     0.39162682771159757      -1.8114953780588128      -0.01825318226735877     -1.8392176046223423
0                         -0.498                   0.13696100847337916      1.4178086445623613E-6    0.3915793077523931       -1.8128422313326495      -0.07703343686070949     -1.866473328219725
0                         -0.497                   0.19865130104168366      -1.822089712198582E-6    0.39147228382256055      -1.8149178393797574      -0.13726766622517225     -1.8926843178828683
0                         -0.496                   0.2559354507395734       -9.370873227449912E-7    0.3913042787267332       -1.817688224929882       -0.19902408786858147     -1.9178368618821322
0                         -0.495                   0.30891441280149956      3.8580755326429784E-7    0.39107375008360257      -1.821136175080351       -0.2623186408239542      -1.9419444929495076
0                         -0.494                   0.3576816593355063       1.6721533733330434E-6    0.3907790723686383       -1.8252216355884279      -0.32728898303174775     -1.9649961426268323
0                         -0.493                   0.4023003403018589       3.535210347922827E-7     0.39041855465789654      -1.829971093984515       -0.3940494220123527      -1.9870366113835467
0                         -0.492                   0.4428357094540165       3.5979711081075943E-7    0.3899903784944383       -1.8353174892986293      -0.46260034870155686     -2.008019155239454
0                         -0.491                   0.4793095685469701       1.069166083367731E-6     0.38949266859777276      -1.841262271715617       -0.5331161082708298      -2.0279498346534237
0                         -0.49                    0.5118170405536536       2.085124357427649E-6     0.3889234473156797       -1.8477662624312556      -0.6056958605541182      -2.0468239102382917
0                         -0.489                   0.5403671137307062       2.8078975222656125E-6    0.38828053778528127      -1.8548323054633102      -0.6804907820314032      -2.064646338984149
0                         -0.488                   0.564935430396504        -2.128322065210044E-6    0.38756176239330614      -1.8624798584924955      -0.7575124294978473      -2.0814272295353855
0                         -0.487                   0.5855827445077101       -1.392255826525061E-6    0.38676467905917356      -1.8706825323504985      -0.8370580368385582      -2.097165254592613
0                         -0.486                   0.6023200901176554       -2.4986637468732366E-6   0.38588682419846354      -1.8793594412173529      -0.9191692464048671      -2.1117868279437872
0                         -0.485                   0.6150808297557977       -7.107963812998854E-6    0.3849254882819358       -1.8885126436694701      -1.0040024876379012      -2.125272932396079
0                         -0.484                   0.6238514373004164       -6.279522276842395E-6    0.38387784335979414      -1.898170506699333       -1.0918055981260193      -2.1376532510271247
0                         -0.483                   0.6286268614546362       -6.899825252392401E-7    0.38274088591657185      -1.9082058363847922      -1.1826649387434793      -2.148807038248894
0                         -0.482                   0.6293604077263898       -1.224943027536229E-6    0.3815114222138916       -1.9185985395654739      -1.2768162001176946      -2.1587067238022835
0                         -0.481                   0.6259767649038621       1.7003622938572084E-7    0.3801860930258952       -1.9292894328041934      -1.3744365804757697      -2.167277093377982
0                         -0.48                    0.6184724126270624       7.042164789369761E-7     0.3787613439335367       -1.9401784508362916      -1.4756856032507768      -2.1744318930287347
0                         -0.479                   0.6067374722874406       6.368226654419712E-6     0.37723345950335635      -1.9511627176872852      -1.5807471640981803      -2.1800443933685982
0                         -0.478                   0.5907602031927072       -3.4374420361188674E-6   0.3755985412013685       -1.9620881128506906      -1.6897646636154504      -2.1839767833696957
0                         -0.477                   0.5704555101572437       -4.378652207558431E-6    0.3738525563559141       -1.972782889920756       -1.8028977431745703      -2.1860491406803586
0                         -0.476                   0.5458023441848702       4.462496562392112E-6     0.3719913499797542       -1.9830459982661939      -1.920228076924366       -2.186079749101638
0                         -0.475                   0.5167701254087667       4.293612922326684E-7     0.37001069331347153      -1.9926068257225236      -2.041792788359319       -2.183817298108711
0                         -0.474                   0.48334477653396135      -1.1266268972572102E-6   0.3679063513907238       -2.001155227762055       -2.1675808293320515      -2.1789808409604294
0                         -0.473                   0.4455570822841078       1.4245115942767864E-6    0.36567414946670684      -2.008345768300483       -2.2974909272751938      -2.1712744754035915
0                         -0.472                   0.403457274158797        3.7141959375101756E-7    0.36331007887047384      -2.0137811071931027      -2.43127311438818        -2.1603612012886018
0                         -0.471                   0.3571354019448728       -3.2161933752625556E-7   0.36081042211347825      -2.017046162529357       -2.5685967794875872      -2.1459043376567535
0                         -0.47                    0.30672655993237063      -9.069163413626665E-7    0.3581718754105781       -2.0176824301307414      -2.7089497050398625      -2.1275432573399535
0                         -0.469                   0.2523951364521661       6.962382353345108E-7     0.3553917202834195       -2.015277838477926       -2.851701065710161       -2.1049769802128298
0                         -0.46799999999999997     0.19434813132327752      -8.500113788133083E-7    0.3524679622921545       -2.0094114666178142      -2.99601578338547        -2.077912956440618
0                         -0.46699999999999997     0.13278987358762695      8.00779077583028E-8      0.34939949643888196      -1.9998099645753846      -3.140944540162826       -2.0462066795390843
0                         -0.46599999999999997     0.06794445896477531      2.74029854070289E-7      0.3461862320592202       -1.9862148987987598      -3.2854186163375276      -2.009736335037078
0                         -0.46499999999999997     -1.28073319206038E-14    -9.642122297386471E-20   0.3428291941254076       -1.968561375651491       -3.428292353264621       -1.9685613756514866
0                         -0.46399999999999997     NaN                      NaN                      NaN                      NaN                      NaN                      NaN
0                         -0.463                   NaN                      NaN                      NaN                      NaN                      NaN                      NaN
0                         -0.462                   NaN                      NaN                      NaN                      NaN                      NaN                      NaN
0                         -0.461                   NaN                      NaN                      NaN                      NaN                      NaN                      NaN
0                         -0.46                    NaN                      NaN                      NaN                      NaN                      NaN                      NaN
0                         -0.459                   NaN                      NaN                      NaN                      NaN                      NaN                      NaN
0                         -0.458                   NaN                      NaN                      NaN                      NaN                      NaN                      NaN
0                         -0.457                   NaN                      NaN                      NaN                      NaN                      NaN                      NaN
0                         -0.456                   NaN                      NaN                      NaN                      NaN                      NaN                      NaN
0                         -0.455                   NaN                      NaN                      NaN                      NaN                      NaN                      NaN
0                         -0.454                   NaN                      NaN                      NaN                      NaN                      NaN                      NaN
0                         -0.453                   NaN                      NaN                      NaN                      NaN                      NaN                      NaN
0                         -0.452                   NaN                      NaN                      NaN                      NaN                      NaN                      NaN
0                         -0.451                   NaN                      NaN                      NaN                      NaN                      NaN                      NaN
0                         -0.45                    NaN                      NaN                      NaN                      NaN                      NaN                      NaN
0                         -0.449                   NaN                      NaN                      NaN                      NaN                      NaN                      NaN
0                         -0.448                   NaN                      NaN                      NaN                      NaN                      NaN                      NaN
0                         -0.447                   NaN                      NaN                      NaN                      NaN                      NaN                      NaN
0                         -0.446                   NaN                      NaN                      NaN                      NaN                      NaN                      NaN
0                         -0.445                   NaN                      NaN                      NaN                      NaN                      NaN                      NaN
0                         -0.444                   NaN                      NaN                      NaN                      NaN                      NaN                      NaN
0                         -0.443                   NaN                      NaN                      NaN                      NaN                      NaN                      NaN
0                         -0.442                   NaN                      NaN                      NaN                      NaN                      NaN                      NaN
0                         -0.441                   NaN                      NaN                      NaN                      NaN                      NaN                      NaN
0                         -0.44                    NaN                      NaN                      NaN                      NaN                      NaN                      NaN
0                         -0.439                   NaN                      NaN                      NaN                      NaN                      NaN                      NaN
0                         -0.438                   NaN                      NaN                      NaN                      NaN                      NaN                      NaN
0                         -0.437                   NaN                      NaN                      NaN                      NaN                      NaN                      NaN
0                         -0.436                   NaN                      NaN                      NaN                      NaN                      NaN                      NaN
0                         -0.435                   1.245357233031701E-14    1.0087385531462046E-19   0.3722572336692828       -2.167313890826048       3.7225725577924433       -2.1673138908260525
0                         -0.434                   0.1246251733892744       5.085817534244739E-7     0.3759296579464112       -2.1872919590148063      3.6217107646105458       -2.2341422578185486
0                         -0.433                   0.2467132938447918       8.374459095978625E-7     0.3794996345379411       -2.2038680487376285      3.5177892472299543       -2.2974956535873785
0                         -0.432                   0.3658735471122268       -1.1778577348793009E-6   0.38296443263689883      -2.2170863846592708      3.411466029383556        -2.3572029400459544
0                         -0.431                   0.48168262602827516      2.0007957137862244E-6    0.38632198095581416      -2.2271318127716113      3.3033909634712          -2.413216399050853
0                         -0.43                    0.5937604451445186       -1.3873119877010405E-6   0.3895708344276708       -2.234278499231449       3.1941764749365955       -2.465590251296544
0                         -0.429                   0.7017694660279676       3.881655919238692E-6     0.39271014161635076      -2.23888288721574        3.0843870062773475       -2.514474873601614
0                         -0.428                   0.8054295739844265       4.169360274500944E-6     0.39573956879831174      -2.2413401354530476      2.974498119914325        -2.5600804877590524
0                         -0.427                   0.9045323301713457       1.607638173364435E-6     0.39865923809577186      -2.242020526582807       2.8649211254409996       -2.6026206961619085
0                         -0.426                   0.9989584567916745       2.611633172150758E-6     0.4014696393771626       -2.2413186394179316      2.756011620105903        -2.6423701308188523
0                         -0.425                   1.0886436112237194       1.228137444814812E-6     0.40417156748883526      -2.239581569230205       2.6480170030912107       -2.679580364015202
0                         -0.424                   1.1735814188388405       2.6524835567782887E-6    0.4067660401547801       -2.2371138815559237      2.5411199901490003       -2.7144869480962273
0                         -0.423                   1.2538288445082717       -7.566073291709923E-6    0.4092542426689251       -2.2341671017738194      2.4354876107734422       -2.7473018759695056
0                         -0.422                   1.329445135694833        8.362183646201803E-6     0.41163745690303793      -2.230973804517309       2.3311657574984728       -2.7782232192668443
0                         -0.421                   1.400571119219531        6.833169599262476E-6     0.4139170317005814       -2.2277178339857926      2.2282094753665675       -2.8074380743387017
0                         -0.42                    1.467315018308322        8.961114255889907E-6     0.41609432954764775      -2.2245269681940685      2.126613179202796        -2.8350684269722644
0                         -0.419                   1.529815840568352        4.267854424037914E-6     0.418170701636606        -2.221525123165066       2.0263532777986564       -2.861249286590328
0                         -0.418                   1.5882454190778348       4.691590611718291E-6     0.4201474594440845       -2.2187686367276287      1.9273783951352237       -2.886065914526886
0                         -0.417                   1.6427153693075431       -3.163613313734952E-7    0.4220258615656191       -2.2163441647839184      1.8296236347874897       -2.9096125338230183
0                         -0.416                   1.6933791302423478       9.438921163901395E-6     0.4238070908126788       -2.2142786116104185      1.7330241299543865       -2.931944694441332
0                         -0.415                   1.7403803088227858       8.269264016777226E-6     0.4254922564585212       -2.212613001696297       1.6374639384099208       -2.953131346393282
0                         -0.414                   1.7838329990336603       3.1361540690404275E-7    0.427082379226404        -2.211343432128118       1.5429087268022297       -2.9731870734979853
0                         -0.413                   1.8238480582881405       2.051789661975099E-5     0.42857838216462696      -2.210479104189876       1.4492346517317676       -2.9921409543251034
0                         -0.41200000000000003     1.8605668128750237       8.717906920748533E-7     0.4299811047884446       -2.2100510576807397      1.3563521172892186       -3.0100596314134576
0                         -0.41100000000000003     1.894054354620895        9.240090728833554E-6     0.4312912751922311       -2.210043931000291       1.264125474384805        -3.026933048888135
0                         -0.41000000000000003     1.9244268305211791       1.0274556231791475E-5    0.4325095608269849       -2.210448929653682       1.1725288752633736       -3.0427819329660637
0                         -0.40900000000000003     1.9517550879076448       4.403944831104384E-6     0.4336364987883611       -2.211247641596342       1.081419521167015        -3.057599884408983
0                         -0.40800000000000003     1.9760952424673013       5.229914868508469E-6     0.43467254042433207      -2.2124948332551737      0.9907410591916348       -3.071449172418872
0                         -0.40700000000000003     1.9975505180046893       6.347942062276376E-6     0.4356180689784429       -2.214081198981137       0.9003583562409142       -3.084250298321228
0                         -0.406                   2.016130374164922        9.083991943660494E-6     0.43647334753369804      -2.216072437138454       0.8102320135537332       -3.0960596106145846
0                         -0.405                   2.031890125035436        3.7415664035204015E-6    0.437238562949567        -2.218386912081596       0.7202362678320444       -3.106807630423506
0                         -0.404                   2.044890786162636        2.65028822100699E-6      0.43791382011869223      -2.2211030708605435      0.6302773078598419       -3.1165890067545394
0                         -0.403                   2.0551342683305975       6.156731138515973E-6     0.43849911604016956      -2.22424246423323        0.5403137725365298       -3.1254170242400576
0                         -0.402                   2.0626466127997567       7.65594906368464E-6      0.43899438838451016      -2.2276559151748696      0.45020624803240616      -3.13314620341428
0                         -0.401                   2.067449147217265        5.131352830758097E-6     0.43939945048655704      -2.2314657051708964      0.35987926757678856      -3.1399017243670633
0                         -0.4                     2.069536471407897        4.31610420891565E-6      0.4397140634789686       -2.2356169059850273      0.2692614936595064       -3.14562119734572
0                         -0.399                   2.0689109617904644       5.944448988026433E-6     0.4399378842234931       -2.2401180840459216      0.178292263761365        -3.1503103952228106
0                         -0.398                   2.0655564618702766       1.2565636133754843E-5    0.44007047254323406      -2.244982562931703       0.08679664409230495      -3.153972971171686
0                         -0.397                   2.0594783559689356       1.3296451429200618E-5    0.4401113062941642       -2.250201878044181       -0.005226303325377369    -3.156601587574227
0                         -0.396                   2.0506106140430114       8.864960764441729E-6     0.44005977367066124      -2.2557074117094382      -0.09796089695217969     -3.1580986544118614
0                         -0.395                   2.0389416183649427       4.354167592934359E-6     0.439915140593716        -2.261636572202165       -0.19142721021007492     -3.1585978609075576
0                         -0.394                   2.024442051364305        -3.066639610780483E-6    0.4396766385646017       -2.267943848784757       -0.28579428969039744     -3.1580437248974413
0                         -0.393                   2.007045367615283        1.5308179553578114E-5    0.4393432937474418       -2.2745752302546998      -0.3810854200417395      -3.156357152763343
0                         -0.392                   1.9866951540051032       1.3020500509906648E-5    0.4389141072149479       -2.2815973698665704      -0.477467444652265       -3.1535858996949835
0                         -0.391                   1.9633434884451793       -6.4878100158711645E-6   0.43838796447857353      -2.2889791589305055      -0.575066719905865       -3.1496853144022494
0                         -0.39                    1.9368772640414056       1.798838789515057E-5     0.43776356545471545      -2.296759074739289       -0.673956895932305       -3.144653371694229
0                         -0.389                   1.907251662525307        8.863053235487939E-6     0.43703956097853786      -2.3049135672159946      -0.7742898919602991      -3.138457996481641
0                         -0.388                   1.8743515326879698       -8.587694621139666E-6    0.4362144501158708       -2.3134467650329222      -0.8762193591772565      -3.1310659881882446
0                         -0.387                   1.8380603212389774       1.8391960451346893E-5    0.4352865837782155       -2.322375859281957       -0.9798265849046419      -3.1224588572923606
0                         -0.386                   1.7983135133131083       -9.535851741533495E-6    0.4342541827298779       -2.3316475124313336      -1.0852802475943386      -3.112572677447213
0                         -0.385                   1.7549408511541515       2.972128443951589E-6     0.4331153425860577       -2.3413292001676465      -1.1927502934555811      -3.1014210081335447
0                         -0.384                   1.7078345472361443       -2.27157837158357E-6     0.43186797706711183      -2.3513054657930987      -1.3023470402703925      -3.0888645168732993
0                         -0.383                   1.6568489851975639       -5.3312932704972545E-6   0.4305098882702607       -2.3615957907944076      -1.4142375899080668      -3.074885662292506
0                         -0.382                   1.6018676600222068       5.995763861108043E-6     0.4290386880603243       -2.3721701870474514      -1.5285772141107767      -3.0594333863496406
0                         -0.381                   1.5427047858685967       1.3815348988875065E-5    0.42745185810602043      -2.382888845708888       -1.6455214906539029      -3.04232087293747
0                         -0.38                    1.4792752608195332       -3.0176755972816954E-6   0.42574674638958065      -2.393731882382647       -1.7651873361346642      -3.023528511691161
0                         -0.379                   1.4113843743523733       1.7799700589650675E-5    0.4239205452235731       -2.404554816954345       -1.887702697866459       -3.002869650449835
0                         -0.378                   1.3389513885746394       -4.450267954005497E-7    0.42197035389459736      -2.4152079216260525      -2.013181883456038       -2.9802057129105557
0                         -0.377                   1.261818603847951        -5.571492847777515E-7    0.4198931683235873       -2.4254970509460985      -2.1416943447761514      -2.9553260623654602
0                         -0.376                   1.1799428358152624       -4.5347234052209935E-6   0.4176859507683125       -2.435194481771606       -2.273255904199166       -2.9280400270013627
0                         -0.375                   1.0932664170933384       5.867917821373464E-6     0.4153456514657819       -2.4440269767758447      -2.407841094190295       -2.8981104290091384
0                         -0.374                   1.0018025843106608       1.8961490262245977E-6    0.41286929798229255      -2.4516430771777107      -2.545340541808414       -2.8652566068788996
0                         -0.373                   0.9056150921357186       -1.758628978205493E-6    0.4102540634245191       -2.457658204449031       -2.685563478717053       -2.82919047589628
0                         -0.372                   0.8048571559165282       1.638333436466742E-6     0.407497373462576        -2.461636892995558       -2.828188783394455       -2.7896140700441023
0                         -0.371                   0.6997361452218721       2.519139222136801E-6     0.4045970130756155       -2.463117388627054       -2.972813656106444       -2.7462285429248685
0                         -0.37                    0.5905884820011678       -3.1427681307739527E-6   0.4015512773690272       -2.4616190302043894      -3.118849698701259       -2.698770589551393
0                         -0.369                   0.47779242530706756      7.833146575578562E-7     0.3983590857963659       -2.456699925175669       -3.2655960143068774      -2.647032878921421
0                         -0.368                   0.36182966069848366      -1.0744586728081262E-6   0.39502013132218694      -2.447899220612439       -3.412221785857769       -2.5908292206978163
0                         -0.367                   0.24318981867210474      -3.6520265619029396E-7   0.3915350141718367       -2.434942867681353       -3.557756694916539       -2.5301601967815817
0                         -0.366                   0.12241858369888567      7.202505429461951E-7     0.38790533468678956      -2.4175973654630054      -3.7011608504243103      -2.4650841871446043
0                         -0.365                   -6.646587630659244E-15   -1.6410219313935156E-19  0.38413377062588533      -2.395830705289427       -3.8413381234232165      -2.3958307052894243
0                         -0.364                   NaN                      NaN                      NaN                      NaN                      NaN                      NaN
0                         -0.363                   NaN                      NaN                      NaN                      NaN                      NaN                      NaN
0                         -0.362                   NaN                      NaN                      NaN                      NaN                      NaN                      NaN
0                         -0.361                   NaN                      NaN                      NaN                      NaN                      NaN                      NaN
0                         -0.36                    NaN                      NaN                      NaN                      NaN                      NaN                      NaN
0                         -0.359                   NaN                      NaN                      NaN                      NaN                      NaN                      NaN
0                         -0.358                   NaN                      NaN                      NaN                      NaN                      NaN                      NaN
0                         -0.357                   NaN                      NaN                      NaN                      NaN                      NaN                      NaN
0                         -0.356                   NaN                      NaN                      NaN                      NaN                      NaN                      NaN
0                         -0.355                   NaN                      NaN                      NaN                      NaN                      NaN                      NaN
0                         -0.354                   NaN                      NaN                      NaN                      NaN                      NaN                      NaN
0                         -0.353                   NaN                      NaN                      NaN                      NaN                      NaN                      NaN
0                         -0.352                   NaN                      NaN                      NaN                      NaN                      NaN                      NaN
0                         -0.351                   NaN                      NaN                      NaN                      NaN                      NaN                      NaN
0                         -0.35                    NaN                      NaN                      NaN                      NaN                      NaN                      NaN
0                         -0.349                   NaN                      NaN                      NaN                      NaN                      NaN                      NaN
0                         -0.348                   NaN                      NaN                      NaN                      NaN                      NaN                      NaN
0                         -0.347                   NaN                      NaN                      NaN                      NaN                      NaN                      NaN