% Model:              C1EqPeEpsMin1.mph
% Version:            COMSOL 5.6.0.280
% Date:               May 4 2021, 11:14
% Dimension:          2
% Nodes:              10201
% Expressions:        9
% Description:        Velocity field, x component, Velocity field, y component, Dependent variable u3, Gradient of u3, x component, Dependent variable u5, Gradient of u5, x component, , , Gradient of u3, y component
% Length unit:        m
% x                       y                        u (m/s)                  v (m/s)                  u3 (1)                   u3x (1/m)                u5 (1)                   u5x (1/m)                -u*u3+u3x                -u*u5+u5x                u3y (1/m)
-0.5                      -0.5                     3.625191354000615E-16    -2.0085782762238558E-23  0.8823022614607103       -0.10912590723144139     0                        0                        -0.10912590723144171     0                        0.08823022615074523
-0.49                     -0.5                     3.334193467202273E-17    -4.709098768469862E-24   0.881176130109596        -0.11618848059552976     0                        0                        -0.11618848059552979     0                        0.08811761301137323
-0.48                     -0.5                     3.15834984039214E-16     -4.9583594300203563E-23  0.8799766612052587       -0.12380035415508095     0                        0                        -0.12380035415508123     0                        0.0879976661261693
-0.47                     -0.5                     3.0106597392371197E-16   -7.060738406658872E-23   0.8786981481699676       -0.13200480067854256     0                        0                        -0.13200480067854284     0                        0.08786981482087056
-0.46                     -0.5                     1.2760890771838566E-16   -3.300346977829315E-23   0.877334434515004        -0.14084857585481875     0                        0                        -0.14084857585481886     0                        0.08773344345269868
-0.45                     -0.5                     3.5463262283018737E-16   -1.2218300311770047E-22  0.8758788775844241       -0.1503822076862745      0                        0                        -0.1503822076862748      0                        0.08758788776030754
-0.44                     -0.5                     -2.42044089019247E-16    9.603339544661301E-23    0.8743243092813382       -0.160660311003139       0                        0                        -0.16066031100313877     0                        0.08743243092860359
-0.43                     -0.5                     -5.920887866643129E-17   2.921546746092476E-23    0.8726629935144794       -0.1717419291485704      0                        0                        -0.17174192914857034     0                        0.08726629934521693
-0.42                     -0.5                     1.4119041499358886E-16   -8.317790432855226E-23   0.870886580083279        -0.18369090513632674     0                        0                        -0.18369090513632685     0                        0.08708865800762304
-0.41000000000000003      -0.5                     2.991459178555265E-18    -2.040134840047839E-24   0.8689860546904528       -0.1965762854290718      0                        0                        -0.1965762854290718      0                        0.08689860546939124
-0.4                      -0.5                     1.0560399641380398E-16   -8.53852119240856E-23    0.8669516847440036       -0.21047275873680246     0                        0                        -0.21047275873680255     0                        0.08669516847784575
-0.39                     -0.5                     -6.400716158105364E-17   6.027732927258562E-23    0.8647729605828103       -0.22546113297882575     0                        0                        -0.2254611329788257      0                        0.08647729606246923
-0.38                     -0.5                     1.3401106063899145E-16   -1.446955289063619E-22   0.8624385317300756       -0.24162885337035767     0                        0                        -0.24162885337035778     0                        0.086243853171607
-0.37                     -0.5                     -3.1151537722754177E-16  3.762798858581725E-22    0.8599361377411879       -0.25907056628850833     0                        0                        -0.25907056628850805     0                        0.08599361377477649
-0.36                     -0.5                     -5.609631255935097E-16   7.989630116698428E-22    0.8572525331696704       -0.27788873195935115     0                        0                        -0.27788873195935065     0                        0.08572525332070557
-0.35                     -0.5                     1.1321206727697913E-16   -1.7783330530208293E-22  0.8543734061525519       -0.2981942889593659      0                        0                        -0.298194288959366       0                        0.08543734061735783
-0.33999999999999997      -0.5                     -1.7431992375022633E-16  3.3131011805104097E-22   0.8512832900606113       -0.320107377519759       0                        0                        -0.3201073775197588      0                        0.08512832900465
-0.32999999999999996      -0.5                     1.3240999576644468E-16   -2.6813741165244126E-22  0.847965467612319        -0.34375812395673905     0                        0                        -0.34375812395673916     0                        0.08479654676152432
-0.32                     -0.5                     -3.3811579039027984E-16  8.266759688398283E-22    0.8444018668179459       -0.3692874910739401      0                        0                        -0.3692874910739398      0                        0.08444018668583411
-0.31                     -0.5                     -2.1879804503994487E-16  5.707392575771535E-22    0.8405729480673548       -0.39684820020183176     0                        0                        -0.3968482002018316      0                        0.08405729481039999
-0.3                      -0.5                     3.628320686680848E-16    -1.1200842671776852E-21  0.8364575816120908       -0.4266057307502298      0                        0                        -0.42660573075023006     0                        0.08364575816010505
-0.29000000000000004      -0.5                     2.875484784407892E-16    -9.458837351913598E-22   0.8320329146592851       -0.45873939890525367     0                        0                        -0.4587393989052539      0                        0.0832032914651272
-0.28                     -0.5                     -3.200552132050541E-17   1.2663512300274516E-22   0.8272742272576752       -0.4934435212955329      0                        0                        -0.4934435212955329      0                        0.08272742272689208
-0.27                     -0.5                     7.491334864814054E-16    -3.0396056108866672E-21  0.8221547761115493       -0.530928666310235       0                        0                        -0.5309286663102357      0                        0.08221547761493449
-0.26                     -0.5                     3.721655564600364E-18    -1.8792715808724382E-23  0.8166456254236697       -0.5714229977395133      0                        0                        -0.5714229977395133      0                        0.0816645625434735
-0.25                     -0.5                     3.2172370538156946E-16   -1.6636938366099838E-21  0.8107154638306887       -0.6151737118818884      0                        0                        -0.6151737118818886      0                        0.08107154638481519
-0.24                     -0.5                     2.3786894107696923E-16   -1.5153826663236145E-21  0.8043304065254628       -0.6624485629761665      0                        0                        -0.6624485629761667      0                        0.08043304064917493
-0.22999999999999998      -0.5                     3.443768330612037E-16    -2.2699582356206813E-21  0.7974537816749586       -0.713537477964713       0                        0                        -0.7135374779647132      0                        0.07974537816894459
-0.21999999999999997      -0.5                     1.25689043018679E-16     -1.0040268517047735E-21  0.7900459003153604       -0.7687542410800451      0                        0                        -0.7687542410800452      0                        0.07900459003339341
-0.21000000000000002      -0.5                     2.1027664139662323E-16   -1.712808650323625E-21   0.7820638091370201       -0.8284382317699737      0                        0                        -0.8284382317699738      0                        0.07820638091729694
-0.2                      -0.5                     -2.938111970624056E-16   2.9818151385918877E-21   0.7734610256455386       -0.8929562041608176      0                        0                        -0.8929562041608173      0                        0.07734610256130021
-0.19                     -0.5                     1.0204995858908033E-16   -1.0375382275844443E-21  0.7641872555904786       -0.9627040430642677      0                        0                        -0.9627040430642678      0                        0.07641872556053875
-0.18                     -0.5                     5.363099108234187E-16    -6.991785662871734E-21   0.7541880931825179       -1.0381084411122574      0                        0                        -1.0381084411122579      0                        0.07541880931933917
-0.16999999999999998      -0.5                     -4.2597498819019456E-16  5.6117235615739376E-21   0.7434047052624811       -1.1196284102122993      0                        0                        -1.119628410212299       0                        0.07434047052527469
-0.15999999999999998      -0.5                     -9.202707479896035E-16   1.5937395972858237E-20   0.7317735018054999       -1.2077564726279706      0                        0                        -1.20775647262797        0                        0.07317735017939976
-0.14999999999999997      -0.5                     1.633863886759296E-16    -2.8114479546947985E-21  0.7192257969721321       -1.3030193282852651      0                        0                        -1.3030193282852653      0                        0.07192257969782587
-0.14                     -0.5                     -4.5065406024247607E-17  1.055133704892176E-21    0.7056874669588267       -1.4059777643899047      0                        0                        -1.4059777643899047      0                        0.070568746701546
-0.13                     -0.5                     2.734123864461402E-16    -6.278837639497421E-21   0.6910786148729713       -1.5172252346838082      0                        0                        -1.5172252346838084      0                        0.06910786148525284
-0.12                     -0.5                     2.2016255045281775E-17   -7.211239606344728E-22   0.6753132586832369       -1.6373845707293169      0                        0                        -1.6373845707293169      0                        0.06753132586517424
-0.10999999999999999      -0.5                     1.369249732256461E-16    -4.343056684534465E-21   0.6582990651996057       -1.7671018298768864      0                        0                        -1.7671018298768864      0                        0.06582990651888676
-0.09999999999999998      -0.5                     1.2831154381459997E-16   -6.2094381078451176E-21  0.6399371664910457       -1.9070356456683204      0                        0                        -1.9070356456683204      0                        0.06399371664247508
-0.08999999999999997      -0.5                     -8.88629264095488E-16    4.33276170195112E-20     0.6201221146848254       -2.057839702924602       0                        0                        -2.0578397029246016      0                        0.062012211462702485
-0.08000000000000002      -0.5                     -6.134000626650233E-16   4.8882436881018504E-20   0.5987420619626296       -2.220134352788304       0                        0                        -2.2201343527883037      0                        0.05987420619438206
-0.07                     -0.5                     -9.112592587783914E-16   7.639801981900056E-20    0.5756793067056534       -2.3944602953230265      0                        0                        -2.394460295323026       0                        0.05756793065065103
-0.06                     -0.5                     6.421703515364796E-17    -9.267343802411269E-21   0.5508114379344428       -2.581202498816457       0                        0                        -2.581202498816457       0                        0.05508114384260343
-0.04999999999999999      -0.5                     3.4296277597348103E-16   -5.812564699779539E-20   0.5240134857206303       -2.7804594649011407      0                        0                        -2.7804594649011407      0                        0.05240134851029258
-0.03999999999999998      -0.5                     9.27873133171717E-16     -2.816481972136769E-19   0.49516183685041454      -2.991809204823166       0                        0                        -2.9918092048231664      0                        0.04951618441582123
-0.02999999999999997      -0.5                     1.4126052048701416E-15   -6.417345518957767E-19   0.4641414540247021       -3.2138523682297064      0                        0                        -3.213852368229707       0                        0.04641414499564175
-0.020000000000000018     -0.5                     2.3574830057623813E-15   -1.8708224693502596E-18  0.4308599717564195       -3.443202557103758       0                        0                        -3.443202557103759       0                        0.043086020279068674
-0.010000000000000009     -0.5                     -1.899153165045555E-15   3.419240927078727E-18    0.39527895440706745      -3.671667210379777       0                        0                        -3.671667210379776       0                        0.03952776766694954
0                         -0.5                     NaN                      NaN                      NaN                      NaN                      NaN                      NaN                      NaN                      NaN                      NaN
0.010000000000000009      -0.5                     NaN                      NaN                      NaN                      NaN                      NaN                      NaN                      NaN                      NaN                      NaN
0.020000000000000018      -0.5                     NaN                      NaN                      NaN                      NaN                      NaN                      NaN                      NaN                      NaN                      NaN
0.030000000000000027      -0.5                     NaN                      NaN                      NaN                      NaN                      NaN                      NaN                      NaN                      NaN                      NaN
0.040000000000000036      -0.5                     NaN                      NaN                      NaN                      NaN                      NaN                      NaN                      NaN                      NaN                      NaN
0.050000000000000044      -0.5                     NaN                      NaN                      NaN                      NaN                      NaN                      NaN                      NaN                      NaN                      NaN
0.06000000000000005       -0.5                     NaN                      NaN                      NaN                      NaN                      NaN                      NaN                      NaN                      NaN                      NaN
0.07000000000000006       -0.5                     NaN                      NaN                      NaN                      NaN                      NaN                      NaN                      NaN                      NaN                      NaN
0.07999999999999996       -0.5                     NaN                      NaN                      NaN                      NaN                      NaN                      NaN                      NaN                      NaN                      NaN
0.08999999999999997       -0.5                     NaN                      NaN                      NaN                      NaN                      NaN                      NaN                      NaN                      NaN                      NaN
0.09999999999999998       -0.5                     NaN                      NaN                      NaN                      NaN                      NaN                      NaN                      NaN                      NaN                      NaN
0.10999999999999999       -0.5                     NaN                      NaN                      NaN                      NaN                      NaN                      NaN                      NaN                      NaN                      NaN
0.12                      -0.5                     NaN                      NaN                      NaN                      NaN                      NaN                      NaN                      NaN                      NaN                      NaN
0.13                      -0.5                     NaN                      NaN                      NaN                      NaN                      NaN                      NaN                      NaN                      NaN                      NaN
0.14                      -0.5                     NaN                      NaN                      NaN                      NaN                      NaN                      NaN                      NaN                      NaN                      NaN
0.15000000000000002       -0.5                     NaN                      NaN                      NaN                      NaN                      NaN                      NaN                      NaN                      NaN                      NaN
0.16000000000000003       -0.5                     NaN                      NaN                      NaN                      NaN                      NaN                      NaN                      NaN                      NaN                      NaN
0.17000000000000004       -0.5                     NaN                      NaN                      NaN                      NaN                      NaN                      NaN                      NaN                      NaN                      NaN
0.18000000000000005       -0.5                     NaN                      NaN                      NaN                      NaN                      NaN                      NaN                      NaN                      NaN                      NaN
0.19000000000000006       -0.5                     NaN                      NaN                      NaN                      NaN                      NaN                      NaN                      NaN                      NaN                      NaN
0.20000000000000007       -0.5                     NaN                      NaN                      NaN                      NaN                      NaN                      NaN                      NaN                      NaN                      NaN
0.20999999999999996       -0.5                     NaN                      NaN                      NaN                      NaN                      NaN                      NaN                      NaN                      NaN                      NaN
0.21999999999999997       -0.5                     NaN                      NaN                      NaN                      NaN                      NaN                      NaN                      NaN                      NaN                      NaN
0.22999999999999998       -0.5                     NaN                      NaN                      NaN                      NaN                      NaN                      NaN                      NaN                      NaN                      NaN
0.24                      -0.5                     NaN                      NaN                      NaN                      NaN                      NaN                      NaN                      NaN                      NaN                      NaN
0.25                      -0.5                     NaN                      NaN                      NaN                      NaN                      NaN                      NaN                      NaN                      NaN                      NaN
0.26                      -0.5                     NaN                      NaN                      NaN                      NaN                      NaN                      NaN                      NaN                      NaN                      NaN
0.27                      -0.5                     NaN                      NaN                      NaN                      NaN                      NaN                      NaN                      NaN                      NaN                      NaN
0.28                      -0.5                     NaN                      NaN                      NaN                      NaN                      NaN                      NaN                      NaN                      NaN                      NaN
0.29000000000000004       -0.5                     NaN                      NaN                      NaN                      NaN                      NaN                      NaN                      NaN                      NaN                      NaN
0.30000000000000004       -0.5                     NaN                      NaN                      NaN                      NaN                      NaN                      NaN                      NaN                      NaN                      NaN
0.31000000000000005       -0.5                     NaN                      NaN                      NaN                      NaN                      NaN                      NaN                      NaN                      NaN                      NaN
0.32000000000000006       -0.5                     NaN                      NaN                      NaN                      NaN                      NaN                      NaN                      NaN                      NaN                      NaN
0.33000000000000007       -0.5                     NaN                      NaN                      NaN                      NaN                      NaN                      NaN                      NaN                      NaN                      NaN
0.33999999999999997       -0.5                     NaN                      NaN                      NaN                      NaN                      NaN                      NaN                      NaN                      NaN                      NaN
0.35                      -0.5                     NaN                      NaN                      NaN                      NaN                      NaN                      NaN                      NaN                      NaN                      NaN
0.36                      -0.5                     NaN                      NaN                      NaN                      NaN                      NaN                      NaN                      NaN                      NaN                      NaN
0.37                      -0.5                     NaN                      NaN                      NaN                      NaN                      NaN                      NaN                      NaN                      NaN                      NaN
0.38                      -0.5                     NaN                      NaN                      NaN                      NaN                      NaN                      NaN                      NaN                      NaN                      NaN
0.39                      -0.5                     NaN                      NaN                      NaN                      NaN                      NaN                      NaN                      NaN                      NaN                      NaN
0.4                       -0.5                     NaN                      NaN                      NaN                      NaN                      NaN                      NaN                      NaN                      NaN                      NaN
0.41000000000000003       -0.5                     NaN                      NaN                      NaN                      NaN                      NaN                      NaN                      NaN                      NaN                      NaN
0.42000000000000004       -0.5                     NaN                      NaN                      NaN                      NaN                      NaN                      NaN                      NaN                      NaN                      NaN
0.43000000000000005       -0.5                     NaN                      NaN                      NaN                      NaN                      NaN                      NaN                      NaN                      NaN                      NaN
0.44000000000000006       -0.5                     NaN                      NaN                      NaN                      NaN                      NaN                      NaN                      NaN                      NaN                      NaN
0.45000000000000007       -0.5                     NaN                      NaN                      NaN                      NaN                      NaN                      NaN                      NaN                      NaN                      NaN
0.45999999999999996       -0.5                     NaN                      NaN                      NaN                      NaN                      NaN                      NaN                      NaN                      NaN                      NaN
0.47                      -0.5                     NaN                      NaN                      NaN                      NaN                      NaN                      NaN                      NaN                      NaN                      NaN
0.48                      -0.5                     NaN                      NaN                      NaN                      NaN                      NaN                      NaN                      NaN                      NaN                      NaN
0.49                      -0.5                     NaN                      NaN                      NaN                      NaN                      NaN                      NaN                      NaN                      NaN                      NaN
0.5                       -0.5                     NaN                      NaN                      NaN                      NaN                      NaN                      NaN                      NaN                      NaN                      NaN
-0.5                      -0.49                    0.061710295415905135     -1.1593158566843713E-4   0.8832174386944803       -0.10898802671567832     0                        0                        -0.16349163577399378     0                        0.09469093538367239
-0.49                     -0.49                    0.06195210104068945      -1.266266682652945E-4    0.8820927468850011       -0.11603829337442137     0                        0                        -0.17068579235670026     0                        0.09508355776467772
-0.48                     -0.49                    0.06221611492454453      -1.382282389524081E-4    0.8808948455024056       -0.12363686435294181     0                        0                        -0.17844271929715838     0                        0.09550842388734587
-0.47                     -0.49                    0.06250406422876491      -1.5082335965927956E-4   0.879618038336033        -0.13182692961464926     0                        0                        -0.18680663197958486     0                        0.09596811174907408
-0.46                     -0.49                    0.06281812784877756      -1.6448552659358815E-4   0.878256180129514        -0.14065515451080363     0                        0                        -0.19582556351815844     0                        0.09646541003117218
-0.45                     -0.49                    0.06316038295115046      -1.7929759158962703E-4   0.8768026403980664       -0.15017196948969777     0                        0                        -0.20555116002981952     0                        0.09700333555678416
-0.44                     -0.49                    0.0635333187493415       -1.9537900708549788E-4   0.8752502642358203       -0.16043188290349494     0                        0                        -0.2160394369266347      0                        0.0975851522856415
-0.43                     -0.49                    0.06393943758695808      -2.1281521636089352E-4   0.8735913298481863       -0.17149382326514506     0                        0                        -0.22735076157648088     0                        0.09821439148063098
-0.42                     -0.49                    0.06438161654759805      -2.3174258896953255E-4   0.8718175025322351       -0.18342150815882205     0                        0                        -0.239550528306337       0                        0.0988948740965922
-0.41000000000000003      -0.49                    0.06486284637066138      -2.5228094981253674E-4   0.869919784790546        -0.19628384886003034     0                        0                        -0.2527093222156983      0                        0.09963073417522644