% Model:              C1fullScalePeEpsMin1.mph
% Version:            COMSOL 5.6.0.280
% Date:               May 4 2021, 11:01
% Dimension:          2
% Nodes:              10201
% Expressions:        6
% Description:        Velocity field, x component, Velocity field, y component, Dependent variable u2, Gradient of u2, x component, Gradient of u2, y component, 
% Length unit:        m
% x                       y                        u (m/s)                  v (m/s)                  u2 (1)                   u2x (1/m)                u2y (1/m)                -u*u2+u2x
-0.5                      -0.5                     1.1974046302871678E-16   -1.8921970662978928E-22  0.8822918647584322       -0.1093621779757268      0.08822918009236243      -0.1093621779757269
-0.49                     -0.5                     2.6517943937700166E-17   -2.2470069118880803E-23  0.8811631538342821       -0.11646914906245837     0.08811630897050847      -0.1164691490624584
-0.48                     -0.5                     -6.4821396227542985E-16  7.880442641914584E-22    0.8799606290760008       -0.12413204935243764     0.087996055489306        -0.12413204935243707
-0.47                     -0.5                     -2.1052442839890854E-16  1.5854388535385041E-22   0.8786785140835135       -0.13239482995181515     0.0878678438458971       -0.13239482995181495
-0.46                     -0.5                     5.961401068407536E-16    -1.0778430295171045E-21  0.8773105734612424       -0.14130548788947173     0.08773104869879304      -0.14130548788947225
-0.45                     -0.5                     2.27747932583771E-16     -1.5694140577060537E-22  0.8758500741118757       -0.1509155119265518      0.0875849987070078       -0.150915511926552
-0.44                     -0.5                     2.478922608878516E-16    -5.014694525122935E-22   0.8742897457155969       -0.16128103294372645     0.08742896449868268      -0.16128103294372667
-0.43                     -0.5                     -2.958387371034309E-16   1.5763648649215568E-22   0.8726217350597383       -0.1724624363010775      0.08726216333122125      -0.17246243630107724
-0.42                     -0.5                     -6.38412606797978E-17    1.504738668790183E-22    0.8708375595185823       -0.18452542286816895     0.08708374400164315      -0.1845254228681689
-0.41000000000000003      -0.5                     -3.9472546897859994E-16  3.183457269920416E-22    0.868928053123788        -0.19754089309570602     0.08689279326711039      -0.1975408930957057
-0.4                      -0.5                     -1.8608993279240004E-16  7.2238570313257715E-22   0.866883311708728        -0.2115858188540807      0.08668831699074236      -0.21158581885408054
-0.39                     -0.5                     1.2224186185660243E-16   -1.9002253714664366E-22  0.8646926291816404       -0.22674354720811818     0.086469249150784        -0.2267435472081183
-0.38                     -0.5                     2.246471870413421E-16    -1.165245941638946E-21   0.8623444327143852       -0.24310433788076388     0.08623442709693403      -0.24310433788076408
-0.37                     -0.5                     3.112849743002047E-17    -4.3936051747697575E-23  0.8598262073981296       -0.2607662906448732      0.08598260548728498      -0.2607662906448732
-0.36                     -0.5                     -1.7078460466503738E-16  1.0015947414532182E-21   0.857124419510589        -0.2798353481996267      0.08571242326249456      -0.2798353481996265
-0.35                     -0.5                     -2.046227108203233E-16   1.4253479149793032E-22   0.8542244274239809       -0.30042711708683134     0.08542242485361196      -0.3004271170868312
-0.33999999999999997      -0.5                     -3.4540347890643113E-16  2.286909383802346E-21    0.851110390581146        -0.32266606821734894     0.08511101706356976      -0.32266606821734867
-0.32999999999999996      -0.5                     -1.8205965370146901E-16  2.2040075293326265E-22   0.8477651641124996       -0.34668860465222595     0.08477649553145912      -0.3466886046522258
-0.32                     -0.5                     -9.949038402174928E-17   9.711876410115231E-22    0.844170190691116        -0.37264110239719983     0.08441699385569794      -0.3726411023971997
-0.31                     -0.5                     -6.598230991990431E-16   1.7628824834387975E-21   0.840305375925874        -0.40068468523025613     0.08403051480099276      -0.4006846852302556
-0.3                      -0.5                     2.281393882812607E-16    -3.0645009011816924E-21  0.8361489597216986       -0.4309916245974639      0.08361486768753267      -0.43099162459746404
-0.29000000000000004      -0.5                     1.675870424506184E-16    -6.864944819806593E-23   0.831677369023582        -0.4637513566837617      0.08316770498554543      -0.4637513566837619
-0.28                     -0.5                     6.122723898857327E-17    -7.437899528076475E-22   0.8268650649397077       -0.49916998287383996     0.08268647393093273      -0.49916998287384
-0.27                     -0.5                     1.3796548356051815E-16   -2.55057165365265E-22    0.8216843686977071       -0.5374683820886956      0.08216840737020976      -0.5374683820886957
-0.26                     -0.5                     6.778969633909268E-16    -1.1844520855812986E-20  0.8161052808901543       -0.5788904228696351      0.08161049302655617      -0.5788904228696357
-0.25                     -0.5                     1.304744295307933E-16    -6.285108402553254E-22   0.8100952758561889       -0.6236973540226635      0.08100949592321191      -0.6236973540226636
-0.24                     -0.5                     4.1494075514325986E-16   -9.790503313766855E-21   0.8036190900220768       -0.6721762717846669      0.08036187268785862      -0.6721762717846672
-0.22999999999999998      -0.5                     -1.772187863204215E-16   1.73217709949184E-21     0.7966384808814064       -0.7246356161401442      0.07966381850886076      -0.724635616140144
-0.21999999999999997      -0.5                     2.8197869704907422E-16   -8.415202324075766E-21   0.7891119828579533       -0.7814124280499591      0.07891116413835055      -0.7814124280499594
-0.21000000000000002      -0.5                     -5.428059989852709E-17   7.121991478130843E-22    0.7809946315403037       -0.8428689995457386      0.07809943832458215      -0.8428689995457386
-0.2                      -0.5                     -5.411874423447577E-16   1.8534958610503024E-20   0.7722376924282038       -0.9093978955947533      0.07722374197886046      -0.9093978955947528
-0.19                     -0.5                     2.75598517201519E-16     -3.912228928102219E-21   0.762788363411617        -0.9814192488511018      0.07627882248138622      -0.981419248851102
-0.18                     -0.5                     -8.283169335746297E-16   2.903617051330143E-20    0.7525895025979433       -1.0593813167731418      0.07525893949582235      -1.0593813167731412
-0.16999999999999998      -0.5                     -8.879495286085606E-16   1.1059094175554814E-20   0.7415793578895798       -1.1437559452864932      0.07415794363462108      -1.1437559452864925
-0.15999999999999998      -0.5                     2.1705392145770893E-16   -6.696117069948574E-21   0.7296913777667514       -1.2350309516111917      0.0729691555575403       -1.235030951611192
-0.14999999999999997      -0.5                     -5.968139433053487E-16   1.2057339478903171E-20   0.7168541124699104       -1.3336930223086312      0.07168543888398858      -1.3336930223086307
-0.14                     -0.5                     -4.686526622868965E-17   4.551879697569065E-22    0.7029913387775282       -1.4402052956806068      0.07029916934995824      -1.4402052956806068
-0.13                     -0.5                     -6.832966499630963E-16   2.901622456250006E-21    0.6880225173864702       -1.5549590130034234      0.0688022974262655       -1.554959013003423
-0.12                     -0.5                     -6.005295146410344E-16   -5.822682915092584E-21   0.6718638236965062       -1.6782046580372174      0.06718643773752259      -1.678204658037217
-0.10999999999999999      -0.5                     9.224566959383769E-16    1.6385739626949555E-20   0.654430080228629        -1.8099395666073834      0.06544306853489232      -1.809939566607384
-0.09999999999999998      -0.5                     1.7275051342629046E-16   4.544121300871775E-21    0.6356380903221146       -1.9497352700287158      0.06356388414719437      -1.9497352700287158
-0.08999999999999997      -0.5                     -9.371658379676373E-16   -2.0597160641467923E-20  0.6154121118524424       -2.096475358947688       0.06154129947453701      -2.0964753589476874
-0.08000000000000002      -0.5                     2.386266228790244E-16    1.10559816323878E-20     0.5936925916709922       -2.2479572278965168      0.05936936251264578      -2.2479572278965168
-0.07                     -0.5                     -2.3901564423292436E-16  -8.257993416248951E-21   0.5704500067466718       -2.4002381549634055      0.05704511393453775      -2.4002381549634055
-0.06                     -0.5                     -9.624146341403915E-17   9.872022976130991E-21    0.5457073097519962       -2.546510051927151       0.05457089433982822      -2.546510051927151
-0.04999999999999999      -0.5                     1.5071334530946848E-15   -2.045647906669232E-19   0.5195785981707314       -2.6748312380519006      0.05195808830755084      -2.6748312380519015
-0.03999999999999998      -0.5                     1.5642641380057258E-16   -3.0923235467523344E-20  0.49234095088095553      -2.7634876311503715      0.04923452297959865      -2.7634876311503715
-0.02999999999999997      -0.5                     1.7409301395095577E-15   -3.800992067872163E-19   0.4645695533310028       -2.773099219203535       0.0464576500862647       -2.773099219203536
-0.020000000000000018     -0.5                     -4.693651697873933E-15   6.174990428946186E-19    0.43734552145637295      -2.6427050596707975      0.04373527217897802      -2.6427050596707953
-0.010000000000000009     -0.5                     -2.005335513403404E-15   8.35365221927526E-20     0.4123745789118973       -2.3171253373800296      0.04123769337125431      -2.3171253373800287
0                         -0.5                     2.5490780495821814E-15   3.755528403971231E-20    0.3916162558804182       -1.8109188193663133      0.03916116103379541      -1.8109188193663142
0.010000000000000009      -0.5                     8.106413398613946E-15    4.0567446700674897E-19   0.3764202903523077       -1.2263191077396332      0.037641619326875354     -1.2263191077396363
0.020000000000000018      -0.5                     -1.627803216266675E-15   -2.4072197660576324E-19  0.36691884342210057      -0.6914295076912758      0.03669175581112222      -0.6914295076912752
0.030000000000000027      -0.5                     -1.6265195012694813E-15  -3.522735543122568E-19   0.3621346824212112       -0.2910209141656075      0.03621363861523682      -0.2910209141656069
0.040000000000000036      -0.5                     1.020993259293964E-15    2.214639461952198E-19    0.36059940416801145      -0.03871336853429873     0.03606019254834169      -0.038713368534299096
0.050000000000000044      -0.5                     6.173543833191902E-16    8.887066240513569E-20    0.3609768550810232       0.09871153590111975      0.03609794611750069      0.09871153590111953
0.06000000000000005       -0.5                     9.815550896343835E-16    6.825931857153278E-20    0.3623314336852606       0.16308410398612191      0.036233424148117775     0.16308410398612155
0.07000000000000006       -0.5                     -8.777044284241216E-16   -2.828624738412206E-20   0.36410282005317945      0.1863232156163856       0.03641053049738551      0.18632321561638593
0.07999999999999996       -0.5                     -2.419323728307408E-16   -5.465081498791589E-21   0.36598823677559716      0.18837523109138377      0.03659898972257019      0.18837523109138385
0.08999999999999997       -0.5                     5.324119795990624E-16    -1.5168031177105062E-20  0.36783787024841924      0.18051376386023618      0.03678389413543         0.180513763860236
0.09999999999999998       -0.5                     3.915742683626341E-16    -1.3182822333676302E-20  0.36958562396894945      0.16869079478316112      0.036958625243616636     0.16869079478316099
0.10999999999999999       -0.5                     2.3418712480206074E-16   -4.913454684918117E-21   0.3712085657963627       0.1558826452956211       0.0371208895394041       0.15588264529562101
0.12                      -0.5                     -9.032963211973879E-17   1.959773892534299E-22    0.3727046829505215       0.14347046446386158      0.03727047858782294      0.1434704644638616
0.13                      -0.5                     4.337394848625584E-16    2.662853028278733E-21    0.3740812138792891       0.13201694200068895      0.037408118044888646     0.13201694200068878
0.14                      -0.5                     3.4491432221542856E-16   3.1048879507125594E-21   0.37534877540785594      0.1216836974370059       0.0375348632315593       0.12168369743700577
0.15000000000000002       -0.5                     8.285631970197228E-17    1.0798522404540788E-21   0.3765185551406305       0.11244836469710057      0.037651834243538886     0.11244836469710054
0.16000000000000003       -0.5                     3.0935642528453233E-16   1.0883386248693933E-20   0.3776010795728699       0.10421346975378988      0.03776008156619571      0.10421346975378977
0.17000000000000004       -0.5                     5.1089961266560116E-17   9.601291900944176E-22    0.37860576237392396      0.09685989262002384      0.0378605518103378       0.09685989262002383
0.18000000000000005       -0.5                     -7.637262381822727E-17   -2.7479845391251776E-21  0.37954082373685805      0.09027037922821025      0.037954058587524035     0.09027037922821028
0.19000000000000006       -0.5                     -5.654128770709846E-17   -1.1328586031408198E-21  0.3804133649586959       0.08433951343633467      0.038041316295993596     0.0843395134363347
0.20000000000000007       -0.5                     6.1547760944869905E-18   1.8403489751235457E-22   0.3812295050549505       0.07897614241829454      0.03812293188383115      0.07897614241829454
0.20999999999999996       -0.5                     -1.0815171157796878E-16  -1.6881974496091767E-21  0.38199452170741044      0.07410310248296982      0.03819943793076868      0.07410310248296986
0.21999999999999997       -0.5                     -6.852171125077826E-16   -1.6667908435743662E-20  0.38271298564374284      0.06965572052959214      0.03827128548139883      0.0696557205295924
0.22999999999999998       -0.5                     -4.566689944606376E-16   -6.278068566535743E-21   0.3833888735515023       0.06557967153489859      0.038338877405960904     0.06557967153489877
0.24                      -0.5                     -3.171738084589034E-16   -4.75789899730497E-21    0.38402566554772016      0.061829580740266475     0.03840255733246185      0.0618295807402666
0.25                      -0.5                     1.6284844968833765E-16   1.5105501176774327E-21   0.3846264232803225       0.05836698081371359      0.038462635033671186     0.058366980813713526
0.26                      -0.5                     -5.308840363441566E-16   -6.719462681984377E-21   0.385193855854269        0.055159555826071315     0.038519378974067583     0.055159555826071516
0.27                      -0.5                     -1.3531834494601534E-16  -1.2053784473877652E-21  0.3857303722232113       0.05217950142114088      0.038573032009111746     0.05217950142114094
0.28                      -0.5                     1.5320253676271185E-17   1.7364894368983594E-22   0.3862381254979326       0.04940326988709716      0.038623807666383125     0.04940326988709715
0.29000000000000004       -0.5                     -2.905985203354357E-16   -1.700298830830705E-21   0.38671904841341015      0.04681027859722244      0.03867190117086239      0.04681027859722255
0.30000000000000004       -0.5                     7.941402382867449E-16    6.98437828056669E-21     0.3871748835871494       0.04438296598751244      0.038717484698459675     0.04438296598751214
0.31000000000000005       -0.5                     1.570105534508626E-16    1.040516435716934E-21    0.38760720807284904      0.04210581116325515      0.03876071789371967      0.04210581116325509
0.32000000000000006       -0.5                     7.367287247089432E-17    5.707466166096995E-22    0.38801745453905884      0.03996524715542656      0.038801742604320066     0.039965247155426535
0.33000000000000007       -0.5                     -4.025521490756667E-16   -2.2706153534495487E-21  0.38840692866505905      0.03794947737215466      0.03884069056066886      0.037949477372154816
0.33999999999999997       -0.5                     4.1293820627391756E-16   2.3118821240297147E-21   0.3887768243726012       0.03604791067244156      0.03887768024824773      0.036047910672441404
0.35                      -0.5                     -4.506732826389914E-16   -1.9665219868477117E-21  0.3891282364204679       0.03425127830919895      0.03891282196434305      0.03425127830919912
0.36                      -0.5                     1.5515141841196934E-16   4.761603891944923E-22    0.38946217162205304      0.032551230393853776     0.03894621540052059      0.032551230393853714
0.37                      -0.5                     1.423204123186505E-16    4.0492273954513798E-22   0.38977955816025717      0.03094037587942916      0.03897795438015206      0.030940375879429105
0.38                      -0.5                     2.3774965123018375E-16   6.581054447074722E-22    0.390081254011023        0.029412038540119447     0.03900812394847556      0.029412038540119353
0.39                      -0.5                     -4.7976367007849384E-17  -1.4490304882525873E-22  0.39036805395680263      0.027960249608928237     0.03903680416387172      0.027960249608928255
0.4                       -0.5                     -1.7721738190670728E-16  -4.713364081474804E-22   0.3906406960205215       0.026579604428985715     0.03906406837615966      0.026579604428985784
0.41000000000000003       -0.5                     -1.7566141412111497E-16  -4.2613747979763325E-22  0.39089986683417693      0.025265227182303923     0.03908998564937476      0.025265227182303993
0.42000000000000004       -0.5                     1.4654350571340988E-16   2.2142551220604585E-22   0.3911462066213384       0.02401269400954334      0.039114619642494845     0.02401269400954328
0.43000000000000005       -0.5                     9.689662795892091E-17    1.6300490329930637E-22   0.3913803133658405       0.02281798087591332      0.03913803047668424      0.02281798087591328
0.44000000000000006       -0.5                     -5.980309983372158E-16   -4.21339011690341E-22    0.3916027467167659       0.021677429965698013     0.03916027380739508      0.02167742996569825
0.45000000000000007       -0.5                     -5.028690757524258E-16   -9.160203449532577E-22   0.39181403126607806      0.020587688902551412     0.03918140236058193      0.02058768890255161
0.45999999999999996       -0.5                     1.653497754450549E-17    2.734096639784148E-23    0.3920146596422082       0.019545705025857504     0.03920146519384815      0.019545705025857497
0.47                      -0.5                     -3.1258559250812997E-16  -3.1385158881388523E-22  0.3922050951157623       0.018548661279128607     0.03922050885605164      0.018548661279128728
0.48                      -0.5                     -4.5037644308155624E-17  2.561020682737458E-23    0.3923857740730871       0.017593987956626988     0.039238576771817316     0.017593987956627005
0.49                      -0.5                     -3.2635870045272706E-17  -1.9163567133276095E-23  0.39255710810965594      0.01667929812114498      0.039255710236297        0.016679298121144995
0.5                       -0.5                     -4.1884275890477157E-16  -7.924781639430372E-23   0.3927194860243837       0.015802411164827012     0.039271948021697214     0.015802411164827175
-0.5                      -0.49                    0.06195363098931521      -1.2485635554469371E-4   0.8832072316448597       -0.10922175721720201     0.0947291516624039       -0.16393965213362227
-0.49                     -0.49                    0.062213488729519026     -1.3609533813482914E-4   0.8820799870923457       -0.11631615691540198     0.09512731792785034      -0.17119343025090591
-0.48                     -0.49                    0.06249646185293205      -1.4825025869885942E-4   0.8808790601561629       -0.12396530535094162     0.09555834778340781      -0.17901712993103788
-0.47                     -0.49                    0.06280472944304373      -1.6140258762806144E-4   0.8795986855091207       -0.13221342077223278     0.0960251719215355       -0.18745637823409
-0.46                     -0.49                    0.06313989292357276      -1.7565460222082916E-4   0.8782326393068871       -0.14110788582883604     0.09653046086095242      -0.1965594006366596
-0.45                     -0.49                    0.06350469198979493      -1.9102863726325322E-4   0.8767742015074708       -0.15070068687171448     0.09707760016247352      -0.2063799624830448
-0.44                     -0.49                    0.06390092409147477      -2.0773055017907335E-4   0.8752161153918215       -0.16104722607954391     0.09766973291683605      -0.21697434463283213
-0.43                     -0.49                    0.06433188798405047      -2.2572468364496075E-4   0.8735505432424486       -0.1722083751907613      0.09831085990984507      -0.22840553088704094
-0.42                     -0.49                    0.0647995857391569       -2.4528213922841616E-4   0.8717690184301339       -0.18424910167934033     0.09900467549778642      -0.24073937293384445
-0.41000000000000003      -0.49                    0.06530788444213446      -2.6636963607450846E-4   0.8698623933335986       -0.197240739727301       0.09975587972560471      -0.25404961239169016
-0.4                      -0.49                    0.06585918238700922      -2.892356724569947E-4    0.8678207826863207       -0.21125952682525567     0.10056882890748477      -0.26841349403143117
-0.39                     -0.49                    0.06645788797760967      -3.139086311087067E-4    0.8656335021287507       -0.22638915829300105     0.10144907374709275      -0.28391733260713947
-0.38                     -0.49                    0.06710679212732468      -3.4069458003058254E-4   0.8632890011105944       -0.2427192389755932      0.1024017066158284       -0.3006517945189276
-0.37                     -0.49                    0.06781126006633345      -3.6950008208974617E-4   0.8607747905315396       -0.26034803828346387     0.10343327796382305      -0.3187182614627418
-0.36                     -0.49                    0.06857421930840084      -4.008090168418468E-4    0.858077362944721        -0.27938099819256434     0.1045497840432597       -0.3382229834627099
-0.35                     -0.49                    0.0694020824710329       -4.3448290204914857E-4   0.855182107328477        -0.2999336372428918      0.10575893195600773      -0.3592850563834545
-0.33999999999999997      -0.49                    0.07029837981580098      -4.711830961433354E-4    0.8520732142106051       -0.3221301165683112      0.10706785903780885      -0.38202948301175865
-0.32999999999999996      -0.49                    0.07127045448058716      -5.105887871983085E-4    0.8487335749186257       -0.34610640791819713     0.10848545133161072      -0.40659603553558105
-0.32                     -0.49                    0.07232247833594511      -5.534618580394716E-4    0.8451446689147954       -0.37200892633200766     0.11002025318860845      -0.4331318833403375
-0.31                     -0.49                    0.07346289936857625      -5.995429235213593E-4    0.8412864444667305       -0.39999779802954516     0.11168266278110059      -0.4618011394395519
-0.3                      -0.49                    0.07469639578158309      -6.496556261390693E-4    0.8371371850514119       -0.43024593954527757     0.11348270335625216      -0.4927770700433582
-0.29000000000000004      -0.49                    0.07603284360481437      -7.033082052101918E-4    0.8326733675666097       -0.46294229478296955     0.11543264543844425      -0.5262528187130557
-0.28                     -0.49                    0.0774777610739381       -7.612994407847354E-4    0.8278695047714187       -0.4982904767532266      0.11754415095799917      -0.562431952444306
-0.27                     -0.49                    0.0790416194764936       -8.23583946944105E-4     0.8226979764201955       -0.5365140198504845      0.11983129808010046      -0.6015414002467709
-0.26                     -0.49                    0.08073007334352802      -8.905606791597016E-4    0.8171288426243405       -0.5778534003251173      0.12230786510678361      -0.6438202717212925
-0.25                     -0.49                    0.08255468876189846      -9.616040080588741E-4    0.8111296462766906       -0.6225721567263437      0.12499014703767923      -0.6895347122202646
-0.24                     -0.49                    0.08452070784560047      -0.0010374412322933227   0.8046651918090006       -0.6709544193879617      0.1278939821188898       -0.7389652909783744
-0.22999999999999998      -0.49                    0.08663878325440155      -0.0011162731000458675   0.7976973144756639       -0.7233102330245298      0.13103733699583023      -0.7924217577560051
-0.21999999999999997      -0.49                    0.08891138134681464      -0.0011983397012397753   0.7901846238943575       -0.7799751111038226      0.13443858590818905      -0.8502315175332831
-0.21000000000000002      -0.49                    0.09134489218627413      -0.001280610817604882    0.7820822389359764       -0.8413121618183652      0.13811676549210283      -0.9127513796147718
-0.2                      -0.49                    0.09393490385465152      -0.0013616841648707164   0.7733415000417924       -0.907713588274914       0.14209110331905594      -0.9803573477281518
-0.19                     -0.49                    0.0966762663453238       -0.001435425072176751    0.7639096816025911       -0.9796000757215434      0.14637821950859234      -1.053452011563927
-0.18                     -0.49                    0.09954822914722328      -0.0014972681045493407   0.7537296956591285       -1.0574244596160514      0.15099783412700885      -1.1324569160745932
-0.16999999999999998      -0.49                    0.1025189129987694       -0.001536789458418962    0.7427398198375941       -1.1416595416866142      0.15595575403623774      -1.2178044206572662
-0.15999999999999998      -0.49                    0.10553720557718733      -0.0015434689793571929   0.7308734744972576       -1.2328019583772687      0.16125526682799188      -1.309936302506199
-0.14999999999999997      -0.49                    0.10852609973943306      -0.0015018655647648224   0.7180590891498545       -1.3313506245890758      0.1668813892411203       -1.4092787769169595
-0.14                     -0.49                    0.11138328596160464      -0.0013973931419592883   0.7042201601437499       -1.4377878836221583      0.17278382331044498      -1.5162262390993766
-0.13                     -0.49                    0.11398475374554626      -0.0012211323786433228   0.6892756043491257       -1.5525389960909326      0.1788695409540346       -1.6311059061154802
-0.12                     -0.49                    0.1162060381614014       -9.836295485034642E-4    0.6731406311096307       -1.6759076532047297      0.1849607093084235       -1.7541306590714452
-0.10999999999999999      -0.49                    0.11798184270730334      -7.417581963271348E-4    0.6557284137113981       -1.8079763059585665      0.19074555820670766      -1.8853403525237742
-0.09999999999999998      -0.49                    0.11943134178040254      -6.523441877039059E-4    0.6369530233553309       -1.9484513500122949      0.19569405536508527      -2.024523504242706
-0.08999999999999997      -0.49                    0.12110129909222585      -0.0010606205305469184   0.6167342478719594       -2.0964373842040667      0.19892010247374878      -2.171124702816028
-0.08000000000000002      -0.49                    0.1243884292480249       -0.002625797716139521    0.5950052250285175       -2.250094391255039       0.19894795046719385      -2.3241061565907035
-0.07                     -0.49                    0.13219173842591625      -0.006479129392726007    0.5717242561008301       -2.4061180098418675      0.1932785670374781       -2.4816952331561
-0.06                     -0.49                    0.14967813614381867      -0.014224583985397011    0.546893228263214        -2.558909762556058       0.17758550604266796      -2.640767721632172
-0.04999999999999999      -0.49                    0.18458454581380915      -0.0272986651512719      0.5205880339048616       -2.698868947497072       0.14409376521823847      -2.7949614532915046
-0.03999999999999998      -0.49                    0.2453840866957103       -0.04458599545060866     0.4930155532200116       -2.8083534161979675      0.07860151278119609      -2.9293315874516406
-0.02999999999999997      -0.49                    0.3335582338022801       -0.05756710460946183     0.46463882874041823      -2.851145669552891       -0.04221259534650547     -3.006129776623505
-0.020000000000000018     -0.49                    0.42912557139919305      -0.05062516086752216     0.436458388330686        -2.7527523983775812      -0.23763882605326733     -2.940047853661958