% Model:              C1fullScalePeEpsMin1.mph
% Version:            COMSOL 5.6.0.280
% Date:               May 4 2021, 11:01
% Dimension:          2
% Nodes:              401
% Expressions:        6
% Description:        Velocity field, x component, Velocity field, y component, Dependent variable u2, Gradient of u2, x component, Gradient of u2, y component, 
% Length unit:        m
% x                       y                        u (m/s)                  v (m/s)                  u2 (1)                   u2x (1/m)                u2y (1/m)                -u*u2+u2x
-2                        0                        1.4993174364407524       6.311045701541853E-11    0.9501267875471724       -0.01852255313992786     -6.894241350639703E-8    -1.4430642125388418
-1.99                     0                        1.4993174670584013       8.245407151579204E-11    0.9499415795718879       -0.018519059145476743    -1.4277329647747013E-8   -1.4427830620826563
-1.98                     0                        1.4993175008351372       1.47973885758913E-10     0.9497564067065307       -0.01851545431144816     9.63477659158534E-10     -1.442501856416844
-1.97                     0                        1.4993175381346253       1.4445131945962624E-10   0.9495712693846653       -0.01851199296861493     -2.6912199046289368E-8   -1.4422208508658023
-1.96                     0                        1.4993175790357058       1.3662536829179095E-10   0.949386167224019        -0.018508387971537275    -4.726727859702837E-8    -1.4419397577838413
-1.95                     0                        1.4993176241179598       1.789014587898684E-10    0.9492011012192942       -0.018504835376468895    -2.134256996747718E-8    -1.4416587752667323
-1.94                     0                        1.4993176738464824       1.8405860172895733E-10   0.9490160704126308       -0.018501166020724415    -3.278470765945461E-7    -1.4413777331547195
-1.93                     0                        1.4993177283159294       9.163360252041394E-11    0.9488310748766235       -0.018497777393719356    -2.8007598998624607E-8   -1.4410970291333
-1.92                     0                        1.4993177880291457       8.133270189433418E-11    0.9486461145158015       -0.018494275735401515    -1.0896059587360467E-7   -1.4408162697736766
-1.91                     0                        1.4993178532382574       2.1154801635386885E-10   0.9484611898104514       -0.018490669720563298    -8.194638771741721E-8    -1.4405354647069726
-1.9                      0                        1.4993179250215956       1.7119353449441055E-10   0.9482763007179988       -0.018487154756791194    -1.0817763197153665E-8   -1.4402548102964559
-1.89                     0                        1.4993180033455948       7.279761357752902E-11    0.9480914468085324       -0.01848365472260855     6.356950977484376E-8     -1.4399742297406137
-1.88                     0                        1.4993180888275985       1.7705964535728224E-10   0.9479066280776215       -0.018480103988283068    4.4264945945442954E-8    -1.4396936579846358
-1.87                     0                        1.4993181822290949       1.6092649743913126E-10   0.9477218447969378       -0.018476545355115295    1.1838685748124541E-8    -1.4394131389548643
-1.8599999999999999       0                        1.499318283873537        1.9508816082424657E-10   0.9475370968612864       -0.018473030721476626    5.1888457412322666E-8    -1.439132724694054
-1.85                     0                        1.49931839475452         1.5880062057020716E-10   0.947352384158612        -0.018469516540973042    5.9302266896839074E-9    -1.4388523724245303
-1.84                     0                        1.4993185154619577       1.559416363007518E-10    0.9471677065824518       -0.01846595829758077     2.0592212482102693E-8    -1.4385720380242895
-1.83                     0                        1.4993186466559851       1.1545247913509806E-10   0.9469830643318878       -0.018462479775761417    -3.703840882756973E-8    -1.438291846195985
-1.82                     0                        1.4993187889093484       1.572144237825707E-10    0.9467984572086466       -0.018458939683638053    -3.391013145269759E-8    -1.4380116558869458
-1.81                     0                        1.4993189438530876       1.32761034613942E-10     0.9466138852080048       -0.018455482404583858    1.3545840632013023E-8    -1.4377316130113176
-1.8                      0                        1.4993191117737177       1.5498554554256837E-10   0.9464293485191073       -0.018451908146550646    -1.0870253011454046E-7   -1.437451518324797
-1.79                     0                        1.499319293860371        4.925139930948665E-10    0.9462448467269171       -0.018448446407314894    -5.884608711632207E-8    -1.4371716018209313
-1.78                     0                        1.499319491190613        7.21856181275373E-11     0.9460603796686421       -0.018444961363634403    -9.149882634320155E-8    -1.436891728444021
-1.77                     0                        1.4993197043600723       -5.6701213254965E-11     0.9458759474828475       -0.01844146039989793     2.2197529147325774E-8    -1.4366119063411842
-1.76                     0                        1.4993199348714168       1.0254468351919445E-10   0.9456915501928196       -0.018437988177186834    7.411628654720222E-8     -1.4363321816207342
-1.75                     0                        1.4993201839814707       -2.4556411708020787E-10  0.9455071878703492       -0.01843447741737037     3.2664771082408184E-8    -1.4360524882909453
-1.74                     0                        1.499320453432322        6.604260950351012E-11    0.9453228603430884       -0.018431024103032653    -5.834727474763727E-8    -1.4357729237125714
-1.73                     0                        1.4993207434838165       -7.859412137614266E-10   0.9451385674855537       -0.018427557165818027    -7.688896274649723E-8    -1.4354934168634879
-1.72                     0                        1.4993210566215525       3.907121854533066E-11    0.9449543090663572       -0.018424134019156657    2.8349552217231322E-8    -1.4352140271476164
-1.71                     0                        1.499321393803913        -7.341352596038282E-10   0.9447700852111914       -0.018420672330274255    -4.6799586810639815E-8   -1.4349346733133594
-1.7                      0                        1.4993217563616075       -3.90250208161704E-10    0.9445858956192132       -0.018417238632841542    -7.427157695334968E-8    -1.4346554226870425
-1.69                     0                        1.4993221472132323       -5.376081942724927E-10   0.9444017404744369       -0.018413831453562804    1.759868061398745E-8     -1.4343762768136095
-1.68                     0                        1.499322566343508        -3.065850206840348E-10   0.9442176193869801       -0.01841038035306462     5.75881045884102E-8      -1.4340971646391092
-1.67                     0                        1.499323016470288        -3.886325874480292E-10   0.9440335327182886       -0.018406964883774447    4.30419602984581E-8      -1.4338181688080611
-1.66                     0                        1.4993235003557743       -4.259375254368707E-10   0.9438494800158654       -0.018403549748634996    3.306250371885312E-8     -1.4335392559349998
-1.65                     0                        1.4993240182660668       -7.212976379224821E-10   0.9436654609632197       -0.018400228853443248    -2.5351843197948513E-8   -1.433260519683718
-1.6400000000000001       0                        1.499324573915933        -1.0106582101743351E-9   0.9434814755294052       -0.018396843099621106    1.2253657263943715E-7    -1.4329818043953224
-1.63                     0                        1.4993251685686713       -1.1043600285175197E-9   0.9432975236687299       -0.01839351251851104     -2.973041510703064E-8    -1.4327032312035397
-1.62                     0                        1.499325803968576        -1.6485871873858901E-9   0.9431136050363393       -0.0183902053147554      -7.627837065248921E-8    -1.4324247694195669
-1.6099999999999999       0                        1.4993264818051086       -1.1810897481496415E-9   0.9429297198302794       -0.018386841888202787    -5.1573808004858185E-8   -1.4321463413108124
-1.6                      0                        1.4993272081815694       -9.499521470101163E-10   0.9427458678231566       -0.018383575965401324    -8.28720737742067E-9     -1.4318681059934057
-1.5899999999999999       0                        1.4993279834782622       -1.2498760208360096E-9   0.9425620485731411       -0.018380337561774412    1.1280567989148886E-8    -1.431589993152082
-1.58                     0                        1.4993288077895008       -1.463471330057982E-9    0.9423782618488513       -0.018377047105035692    4.017124741473491E-8     -1.431311922929616
-1.57                     0                        1.4993296866835037       -1.4328630754013758E-9   0.942194507438994        -0.018373840181841957    -5.445879213812626E-9    -1.431034035815267
-1.56                     0                        1.499330621878278        -1.6919601805321096E-9   0.9420107851279896       -0.018370631134860024    -1.8627511474360372E-7   -1.4307562474168536
-1.55                     0                        1.4993316159696521       -2.2952748818051016E-9   0.9418270949594506       -0.018367431987584334    3.45841358457836E-8      -1.4304785722371405
-1.54                     0                        1.499332670838453        -2.7350543361363526E-9   0.9416434362738618       -0.01836430201592545     -4.062845570089049E-8    -1.4302010703019132
-1.53                     0                        1.4993337900869907       -2.7164354114557355E-9   0.9414598086620775       -0.01836119357743106     -2.53557784520389E-8     -1.4299236967133169
-1.52                     0                        1.4993349771522393       -2.301681670493717E-9    0.9412762121939997       -0.018358106810735162    -5.0027270266524305E-8   -1.4296464549145722
-1.51                     0                        1.4993362335922755       -3.631026843645712E-9    0.9410926464413943       -0.018355035681078713    -4.673824403091832E-8    -1.429369339657906
-1.5                      0                        1.499337563986779        -3.515885063766521E-9    0.9409091108230745       -0.018352068179518517    -4.094634645903182E-9    -1.4290924423339533
-1.49                     0                        1.499338967355957        -3.3686119883263075E-9   0.9407256049481557       -0.01834910384182561     2.3483777484996505E-9    -1.4288156609301013
-1.48                     0                        1.4993404453606483       -3.0835172817715988E-9   0.9405421287391997       -0.018346149393223557    2.5418053101215507E-8    -1.4285390035775074
-1.47                     0                        1.499342005606958        -3.039106593523259E-9    0.9403586816505934       -0.018343298251114033    3.124206477695722E-8     -1.4282625699870297
-1.46                     0                        1.4993436462795484       -3.805326265826248E-9    0.9401752629368538       -0.018340462829132497    3.193617823436622E-8     -1.4279862697027081
-1.45                     0                        1.4993453722929813       -5.616768521784075E-9    0.9399918722914876       -0.01833766249794065     6.574517462873184E-8     -1.4277101262111975
-1.44                     0                        1.4993471833297676       -6.6420468262880266E-9   0.9398085090162941       -0.018335059829635077    -8.005902115014629E-8    -1.427434300692564
-1.43                     0                        1.4993490806373369       -6.482987322210345E-9    0.9396251721999066       -0.018332353041143435    -9.12819710595977E-8     -1.4271584911227728
-1.42                     0                        1.4993510630106168       -6.825710922292164E-9    0.9394418616328085       -0.01832976601690248     -9.403502561970542E-8    -1.4268829198927266
-1.4100000000000001       0                        1.499353136841982        -6.340314065792857E-9    0.9392585765566044       -0.018327239490384343    -6.163474227495273E-8    -1.426607532556264
-1.4                      0                        1.499355295406115        -7.332566576473143E-9    0.9390753160810466       -0.018324835855347558    -7.914165979903048E-8    -1.426332383806636
-1.3900000000000001       0                        1.4993575401758685       -7.57539148338299E-9     0.9388920795635087       -0.018322494731479694    -7.193085718750499E-8    -1.4260574136364281
-1.38                     0                        1.4993598725727237       -7.931360750244076E-9    0.9387088662300034       -0.018320216438832394    -5.5630622813587794E-8   -1.4257826224923362
-1.37                     0                        1.4993622875548123       -7.918461492808082E-9    0.9385256749939918       -0.018318046653247766    -1.5516982093951826E-8   -1.4255080496411636
-1.3599999999999999       0                        1.4993647857736379       -8.345901338029434E-9    0.9383425047703866       -0.018316010808931266    -2.4094296295066788E-8   -1.4252337194562807
-1.35                     0                        1.4993673567089536       -9.226960595233902E-9    0.938159354541621        -0.018314041828255145    -1.8140508939787865E-8   -1.4249595534191035
-1.3399999999999999       0                        1.4993700001582224       -8.569494844786349E-9    0.9379762233316002       -0.018312224287988604    1.4494752743299724E-8    -1.424685634413099
-1.33                     0                        1.4993727075606018       -1.0929636273184628E-8   0.9377931096515956       -0.01831052910058778     2.1045218293252677E-8    -1.424411923050577
-1.3199999999999998       0                        1.4993754694425767       -8.104666131084666E-9    0.937610012281335        -0.018308970312281035    3.192339919454577E-8     -1.4241384226306677
-1.31                     0                        1.4993782767100268       -1.2265525276110253E-8   0.9374269299987927       -0.018307523831779318    5.202358043589101E-8     -1.4238650986749402
-1.2999999999999998       0                        1.4993811151995011       -1.2526805586874673E-8   0.9372438613128018       -0.018306247552657612    3.469717654386259E-8     -1.423591993541733
-1.29                     0                        1.4993839798143263       -1.0987080501433E-8      0.937060804420006        -0.01830518243454667     6.84295933803484E-8      -1.4233191406938293
-1.28                     0                        1.4993868418693146       -1.369710260843188E-8    0.9368777573613082       -0.01830427515403861     1.0697268295646194E-8    -1.4230464569816164
-1.27                     0                        1.4993896892164138       -1.582804204156237E-8    0.9366947182321091       -0.018303525875585775    2.513753101340378E-7     -1.4227739283362841
-1.26                     0                        1.4993925010008855       -1.2585662563425558E-8   0.9365116855939699       -0.018303035163040517    4.858831993802962E-9     -1.422501633642338
-1.25                     0                        1.4993952411349005       -1.4420515069966936E-8   0.9363286566894526       -0.018302777480950876    -4.3613605778385624E-8   -1.42222950945935
-1.24                     0                        1.4993978969336144       -1.8335726617313104E-8   0.9361456292383487       -0.018302734172387904    -3.723100258496014E-8    -1.4219575218759628
-1.23                     0                        1.4994004168826633       -1.3022847632874655E-8   0.9359626009483818       -0.018302965843905353    -6.507864557600413E-8    -1.4216856798924908
-1.22                     0                        1.4994027790272357       -2.254502414887526E-8    0.9357795690166115       -0.018303463616300794    -3.440638121882916E-8    -1.421413949956717
-1.21                     0                        1.4994049306050214       -1.5627386900652488E-8   0.9355965305585113       -0.018304278611022698    -3.4985469599549295E-8   -1.4211423295874064
-1.2                      0                        1.499406829158111        -2.4977844265194062E-8   0.9354134824941351       -0.018305390289869054    -1.3668958622695958E-8   -1.4208707540281464
-1.19                     0                        1.4994084085590311       -2.5989814498615606E-8   0.9352304215474351       -0.018306857981943737    1.9884738388615118E-8    -1.420599215990375
-1.18                     0                        1.4994096223592581       -1.4102283663170353E-8   0.9350473438273366       -0.018308739599597917    -1.4506210028052962E-8   -1.4203277242957721
-1.17                     0                        1.4994103878693779       -3.277495422344606E-8    0.934864245444037        -0.018310988841035273    6.387518585220161E-8     -1.4200561497074922
-1.1600000000000001       0                        1.4994106490564478       -2.3305678698251806E-8   0.9346811224946863       -0.018313688199457195    -5.408816409058447E-8    -1.419784516740024
-1.15                     0                        1.4994103019015004       -2.546681326923853E-8    0.934497970042778        -0.018316870319937378    -1.2658968515858878E-7   -1.4195127537081185
-1.1400000000000001       0                        1.4994092674868622       -2.0880076784734445E-8   0.9343147839859932       -0.018320488000846725    -5.153089687094074E-8    -1.4192407338594306
-1.13                     0                        1.4994074458186322       -3.624697142341518E-8    0.9341315583355723       -0.018324659347043755    8.928200655536267E-8     -1.4189684732895629
-1.12                     0                        1.4994046528681562       -9.326607291045E-9       0.9339482881075433       -0.018329484009247592    -2.0160005577010604E-8   -1.4186958927359472
-1.1099999999999999       0                        1.4994008322078711       -5.416650034854719E-8    0.9337649666097146       -0.018334907846259307    -1.0745913194530721E-8   -1.4184228758674204
-1.1                      0                        1.4993958084641739       -1.451293034321397E-8    0.9335815876428931       -0.01834100381013885     -9.10617943395044E-9     -1.4181493231812214
-1.0899999999999999       0                        1.4993894723402628       -6.59911579718097E-8     0.9333981443414061       -0.018347781857022103    2.6348036152410738E-8    -1.4178751329844634
-1.08                     0                        1.4993815821501884       -1.0319467808870305E-9   0.9332146291281611       -0.01835540171967298     2.5686333358556563E-8    -1.4176002288275564
-1.0699999999999998       0                        1.4993719822981562       -7.456472176951417E-8    0.9330310335582832       -0.018363871524993556    1.2433082913985513E-8    -1.4173244618569742
-1.06                     0                        1.4993604964928373       -2.2716639613785205E-8   0.9328473491302679       -0.018373160989437975    -1.4991764708313748E-9   -1.4170476255334237
-1.0499999999999998       0                        1.499346766069697        -1.5429859522232338E-8   0.9326635665425821       -0.018383533514890936    -2.5232485504709978E-9   -1.4167696358415411
-1.04                     0                        1.4993306321513964       -8.383838931793903E-8    0.93247967515644         -0.01839491355489132     -9.11601588159363E-9     -1.4164902543755253
-1.03                     0                        1.499311780961731        -8.85994326826795E-8     0.9322956641370925       -0.0184074827968587      3.5104851952090295E-9    -1.4162093553771427
-1.02                     0                        1.499290043775345        -1.3694658446941806E-8   0.9321115216368939       -0.01842121894635991     -2.0982395642209315E-8   -1.415926743024842
-1.01                     0                        1.4992648879699744       -1.0056845091101355E-7   0.9319272350975095       -0.01843632302644301     1.4515673163703119E-8    -1.4156421047510785
-1                        0                        1.4992360228741082       -3.704290979343671E-8    0.9317427903651249       -0.01845290415072192     -5.1074227687306774E-8   -1.4153552595193557
-0.99                     0                        1.4992029267500206       -1.0033327715393556E-7   0.9315581722882296       -0.018470994000093586    8.103444506440138E-9     -1.4150657323325073
-0.98                     0                        1.4991655226350356       -5.47579394836614E-9     0.9313733649926937       -0.018490737545317448    3.351901569346686E-8     -1.4147735750429409
-0.97                     0                        1.499123092621091        -1.3017305131204335E-7   0.9311883514768752       -0.018512303412947382    1.1588650751757091E-8    -1.4144782646916958
-0.96                     0                        1.4990748285281619       -5.6061710409153173E-8   0.9310031124314766       -0.018535803585669208    8.043537337815125E-8     -1.41417913471307
-0.95                     0                        1.4990206326853106       -5.757497952936502E-8    0.9308176271759667       -0.018561511545731463    -2.220039775421684E-8    -1.4138763399496885
-0.94                     0                        1.4989597489618558       5.803457009806246E-8     0.9306318740815668       -0.01858950300344533     -7.725466076739896E-8    -1.413569223352652
-0.9299999999999999       0                        1.498891582685372        -7.665303121296747E-8    0.9304458290564328       -0.018619925142293155    -4.9453256695219194E-8   -1.4132573464596927
-0.9199999999999999       0                        1.4988150937901077       5.0811724625158434E-8    0.930259466508716        -0.01865307846261367     5.1615982960321556E-9    -1.4129400080070105
-0.9099999999999999       0                        1.498729985053084        -1.3974686079617035E-7   0.930072758131997        -0.01868909250183204     3.96877370236659E-8      -1.4126170233952804
-0.8999999999999999       0                        1.4986350180270842       -1.0280012476729768E-7   0.9298856739613156       -0.018728305129173305    2.875986029527444E-8     -1.4122875388893168
-0.8899999999999999       0                        1.4985291417419206       -1.0089087807177825E-7   0.9296981807727466       -0.018770878217649698    5.422523405956603E-8     -1.4119506951300587
-0.8799999999999999       0                        1.498411866505886        -2.110221195139874E-7    0.9295102425410928       -0.018817350847176506    -7.212291747697853E-8    -1.4116065283095143
-0.8699999999999999       0                        1.4982818975798533       -7.388730628233726E-8    0.9293218207436382       -0.01886772848017109     -2.5266159488979276E-8   -1.4112537895263135
-0.8599999999999999       0                        1.498138053948131        1.0592427577343273E-7    0.9291328729991748       -0.01892255582261658     1.1874853510671088E-8    -1.4108918700368362
-0.8499999999999999       0                        1.497978883219362        -2.832972011635871E-7    0.9289433536141191       -0.018982145580468717    3.8829545526669226E-8    -1.4105196730013956
-0.8400000000000001       0                        1.4978034343975772       -1.3541241101464444E-7   0.9287532127705915       -0.019046952192113477    3.726697344201594E-8     -1.4101367039876893
-0.8300000000000001       0                        1.4976101400671855       -2.797472785894148E-7    0.9285623958461545       -0.01911733892997161     8.213207570552386E-8     -1.4097417986342524
-0.8200000000000001       0                        1.4973973493970298       -2.9074824934719815E-7   0.9283708438380397       -0.01919409330709726     -2.3537565175431356E-9   -1.409334134127662
-0.81                     0                        1.4971631367933589       -1.8659122187931932E-7   0.9281784913070901       -0.019277547104456266    -4.845306301487082E-8    -1.4089121686539066
-0.8                      0                        1.4969062916938076       1.250185822564354E-7     0.9279852687436212       -0.019368266511533158    7.433397471738755E-9     -1.4084752538930285
-0.79                     0                        1.4966238318962162       -7.344817025971222E-8    0.927791098747886        -0.019467160969259427    -3.6363029644380585E-8   -1.4080214303765213
-0.78                     0                        1.496315469872241        -4.6743110846864003E-7   0.927595896565652        -0.01957477743088696     1.9129734471890467E-8    -1.4075508672520831
-0.77                     0                        1.4959775206021515       2.984646176937661E-7     0.9273995703896052       -0.019692159788312506    5.273865380113905E-11    -1.4070610697072545
-0.76                     0                        1.4956082872805823       -6.339367404281351E-7    0.9272020189275552       -0.019819991156072882    3.923637821969218E-8     -1.4065510146474116
-0.75                     0                        1.4952047930016232       -3.627319134076372E-7    0.9270031309918807       -0.019959599020363643    3.153779390649929E-8     -1.4060191236069353
-0.74                     0                        1.494764246525998        1.07579093923918E-7      0.9268027850568445       -0.02011186357153203     1.4049725168883107E-8    -1.4054635302552227
-0.73                     0                        1.4942844697488509       1.8449934223760824E-7    0.9266008465000823       -0.02027825308599646     8.711791737713164E-10    -1.4048835076672084
-0.72                     0                        1.4937616441194168       -4.928497532157929E-7    0.9263971683543571       -0.020460022263422913    1.7796155579152472E-7    -1.4042765795719996
-0.71                     0                        1.4931913544711908       -8.172962092935025E-7    0.9261915880581507       -0.02065907348363728     -1.775065552961876E-7    -1.4036403453560107
-0.7                      0                        1.4925730868519131       -3.154318948131527E-7    0.9259839256189961       -0.02087684280725785     -9.078639754840128E-8    -1.4029755290436552
-0.69                     0                        1.491900658779955        -4.59468136015452E-7     0.9257739839153614       -0.021115305524732314    -4.986590503398902E-9    -1.4022781220094036
-0.6799999999999999       0                        1.4911717292319215       -9.53164864552457E-8     0.9255615425013085       -0.02137682307425614     -1.163675767209333E-8    -1.401548028916497
-0.6699999999999999       0                        1.4903811859009732       7.221048393496508E-7     0.925346359836077        -0.02166405626756978     -5.4273738195266925E-8   -1.400782861409211
-0.6599999999999999       0                        1.4895251595332542       -5.668085481366825E-7    0.9251281655926378       -0.021979622291246653    2.3626737749154944E-9    -1.3999813007343274
-0.6499999999999999       0                        1.488598002281378        1.3226100540164063E-6    0.9249066618845391       -0.02232656807370155     7.618521059207154E-8     -1.3991407772517643
-0.6399999999999999       0                        1.4875950414866779       2.5997819770556256E-8    0.9246815156237613       -0.022708823831964365    -4.584834557778471E-8    -1.3982604614282579
-0.6299999999999999       0                        1.4865137375515498       3.5691845915739976E-7    0.9244523573307136       -0.02312971382915773     -3.133894410756259E-8    -1.3973408427131777
-0.6199999999999999       0                        1.485342030587307        -2.2082701984796775E-8   0.9242187736019553       -0.02359458182925526     3.4087074565752195E-8    -1.3963755717180941
-0.6099999999999999       0                        1.4840796048524962       9.728647009265298E-8     0.9239803050914656       -0.024107557538072272    -4.6904168188182896E-8   -1.3953678836097034
-0.5999999999999999       0                        1.4827201528310057       1.4688806211345223E-6    0.9237364383517841       -0.024675572310247598    -7.133975144505055E-8    -1.3943182053587737
-0.5900000000000001       0                        1.4812580620227718       -1.9674526092067156E-6   0.9234865944624254       -0.025303863446922814    5.29490895665935E-8      -1.3932258266643442
-0.5800000000000001       0                        1.479683139671223        1.1715495863619037E-6    0.9232301324296063       -0.02600070777374593     -1.5666203044659577E-7   -1.3920887687662646
-0.5700000000000001       0                        1.4779886116236107       -2.3659734757859033E-6   0.9229663259007514       -0.026774009288707008    -1.193086742975561E-7    -1.3909077278821036
-0.56                     0                        1.4761700088184109       3.330331231802056E-6     0.9226943656341964       -0.027633442746697046    -1.3275989509119498E-7   -1.3896871926016268
-0.55                     0                        1.4742203898661754       -7.904589181534755E-7    0.9224133354631838       -0.028589306592780975    1.4865840522165547E-7    -1.388429853617075
-0.54                     0                        1.4721258659163596       -7.02705980194517E-7     0.9221222125738768       -0.02965470548389732     -1.2821503370642545E-7   -1.3871346661499253
-0.53                     0                        1.4698866866339204       -9.763216528957092E-7    0.9218198345731925       -0.03084281750260078     -1.4320829572049682E-7   -1.3858135198168193
-0.52                     0                        1.4674897436967502       -4.405339477752366E-7    0.9215049080639269       -0.032168525210653554    1.0749815267667642E-7    -1.3844675265606832
-0.51                     0                        1.464923891933224        9.195330598531057E-7     0.9211759432517762       -0.03365047807964803     -3.3606600666248774E-7   -1.3831031260232987