% Model:              C1Eq.mph
% Version:            COMSOL 5.6.0.280
% Date:               Jun 10 2021, 09:42
% Dimension:          2
% Nodes:              1001
% Expressions:        8
% Description:        Velocity field, x component, Velocity field, y component, Dependent variable u4, Gradient of u4, x component, Gradient of u4, y component, Dependent variable u6, Gradient of u6, x component, Gradient of u6, y component
% Length unit:        m
% x                       y                        u2 (m/s)                 v2 (m/s)                 u4 (1)                   u4x (1/m)                u4y (1/m)                u6 (1)                   u6x (1/m)                u6y (1/m)
0                         -0.5                     -6.876281542782707E-15   1.1736226321688203E-18   0.4194262554277126       0.007753890845983255     0.004207650795400543     0.42313885846560406      0.012017339999017966     0.00424653817503318
0                         -0.499                   0.058447537093063454     -1.829891491859472E-7    0.41943059135661126      0.00774039373864809      0.004468498207417876     0.4231434615332893       0.011872931209062495     0.004935428230267198
0                         -0.498                   0.11186306092712857      -4.400292244690789E-7    0.41943518907784516      0.007705384561615842     0.004725271118933904     0.42314866465926104      0.011618307495608682     0.005446635565092132
0                         -0.497                   0.1602465715022073       -7.711202258494308E-7    0.4194400385525666       0.007657328699815897     0.004972005182973017     0.42315431949120785      0.011380046550634905     0.005850828791535365
0                         -0.496                   0.20359806881830375      -1.1762621533270582E-6   0.41944512974192855      0.007598885443243205     0.005208700399603165     0.42316034960848625      0.01116701614113936      0.006203822471101662
0                         -0.495                   0.2419175528754089       -1.6554550069018918E-6   0.4194504526070833       0.007532885053125528     0.005435356768736233     0.4231667182879091       0.010950672273066012     0.006529196954509526
0                         -0.494                   0.2752050236735247       -2.20869878657394E-6     0.4194559971091834       0.007462342723531076     0.005651974290437137     0.4231733962695337       0.010734143931754573     0.006818298379799428
0                         -0.493                   0.30399209719857523      -1.9935008378953685E-6   0.41946175394816976      0.0073879697467457385    0.005861203178200943     0.4231803423662074       0.010553317599681004     0.007084293627944006
0                         -0.492                   0.33124798912018383      -4.5019378101550905E-7   0.41946771646909475      0.007310480848952353     0.0060628478167707965    0.4231875546677343       0.0103663456763284       0.007338547913063922
0                         -0.491                   0.3571282673083266       5.948244378021401E-7     0.4194738776620936       0.007229436045277728     0.006258547326165716     0.4231950156661897       0.01018362459052756      0.007581445267568841
0                         -0.49                    0.3816329317630071       1.1415538185577642E-6    0.4194802315820374       0.007145374541265667     0.006448301706497138     0.4232027134309963       0.010002484410977935     0.007811991403011093
0                         -0.489                   0.40476198248422457      1.189994361251311E-6     0.4194867722837969       0.007058850063052969     0.006632110957689911     0.4232106354963015       0.009823274281358343     0.008030110056531174
0                         -0.488                   0.42651541947197835      7.401460658827813E-7     0.4194934938222431       0.006970431349057533     0.006809975079845878     0.4232187697790027       0.009647443975727723     0.008236642990942827
0                         -0.487                   0.4468932427262686       -2.0799106754780615E-7   0.4195003902522469       0.006880702662813191     0.006981894072837279     0.4232271054967724       0.009475546890769161     0.008433349993849608
0                         -0.486                   0.46574896400058197      -2.700401389329954E-7    0.419507456609048        0.006788947031607518     0.007149735733967911     0.4232356337515512       0.009307060270031394     0.008621804423187775
0                         -0.485                   0.48364032218694053      1.8055468524948817E-7    0.4195146879420479       0.00669640522899215      0.007312234373989191     0.4232443468985198       0.009141566025110525     0.008803406323417499
0                         -0.484                   0.5007374603623551       5.15353811640526E-7      0.4195220796860126       0.006602652662135832     0.007470557663628773     0.42325323837896617      0.008978194706424547     0.008978457531666074
0                         -0.483                   0.5170403785268295       7.343572402402008E-7     0.4195296276655917       0.006507887761237821     0.007624705602996895     0.4232623016256773       0.00881665583827289      0.009146950026435034
0                         -0.482                   0.5325490766803627       8.375649710484861E-7     0.41953732770543506      0.006412314595132881     0.007774678192001296     0.4232715301384797       0.008656971839804345     0.00930902590680158
0                         -0.481                   0.5472635548229549       8.249770040653737E-7     0.41954517563019217      0.006316143073415213     0.00792047543058289      0.4232809176343584       0.008499533507147944     0.009464977393136363
0                         -0.48                    0.561183812954605        6.965933392908638E-7     0.41955316726451275      0.006219589157393687     0.008062097318880258     0.42329045819758054      0.008345157910742454     0.009615246826270326
0                         -0.479                   0.5743514959866581       8.239022649027628E-7     0.41956129939960396      0.00612217814348111      0.008200946306816122     0.4233001471700363       0.00819230512363444      0.00976157904766743
0                         -0.478                   0.5870415688968358       9.203524800273745E-7     0.4195695681038882       0.006024595469555224     0.008335935642174875     0.423309979993657        0.008041522126688438     0.00990337491988307
0                         -0.477                   0.5992540316851387       9.859439846627947E-7     0.41957797021765014      0.005926611905447855     0.008467765262635743     0.42331995251792176      0.007892241458828993     0.010040967971881734
0                         -0.476                   0.6109888843515646       1.0206767788090144E-6    0.41958650258117497      0.0058283251825010365    0.00859643516811502      0.42333006051812994      0.007744337286651476     0.010174329653369904
0                         -0.475                   0.6222461268961159       1.0245508624660434E-6    0.41959516203474795      0.005729831897666892     0.008721945358670375     0.42334029978666016      0.007597898936675376     0.010303522672120593
0                         -0.474                   0.6330257593187917       9.975662356338786E-7     0.41960394541865415      0.0056312275316294435    0.00884429583429207      0.42335066622422735      0.007453217168892286     0.010428700993222842
0                         -0.473                   0.6433034282232569       9.329294418744827E-7     0.41961284973410307      0.005532417504153106     0.008964009793885895     0.4233611560286888       0.007310397160759259     0.010550441646687059
0                         -0.472                   0.6531597172114124       8.498923090915507E-7     0.41962187228880643      0.0054336442825370455    0.00908068159643832      0.42337176595335296      0.007169043559617594     0.010668918982810872
0                         -0.471                   0.662695801575052        7.750643923326789E-7     0.4196310102612627       0.005334784122401327     0.009194845299625153     0.4233824928714614       0.007029052040873718     0.010784412665085607
0                         -0.47                    0.671911681314174        7.084456915978815E-7     0.41964026114337266      0.005235886931814239     0.009306500903469536     0.4233933337613737       0.006890237424586598     0.01089685634403958
0                         -0.469                   0.6808073564287805       6.500362068871417E-7     0.4196496224270365       0.005137002141230576     0.009415648407848025     0.42340428556397186      0.006752562880334235     0.011006241414692784
0                         -0.46799999999999997     0.6893828269188703       5.99835938200471E-7      0.4196590916041552       0.005038178705874522     0.009522287812836002     0.4234153452404053       0.006616127552039589     0.011112617016382696
0                         -0.46699999999999997     0.697638092784442        5.578448855378745E-7     0.4196686661666291       0.004939465112790923     0.009626419118422509     0.4234265098298349       0.006481154370302279     0.011216090033065696
0                         -0.46599999999999997     0.7055571653558527       5.209160266150292E-7     0.4196783438555874       0.004840785302027537     0.009728503930152298     0.42343777666658977      0.006347464261517015     0.011317142678233041
0                         -0.46499999999999997     0.7132270150078255       4.997294704745432E-7     0.41968812238288156      0.004742274690400336     0.009828207736722418     0.42344914329637695      0.006214953096320326     0.011415732146337584
0                         -0.46399999999999997     0.7206714312831647       4.976800478387377E-7     0.4196979995852179       0.004643875874805531     0.009925854014568972     0.42346060735241703      0.006083512055465778     0.011511987394272095
0                         -0.463                   0.7278904141818701       5.147677587076119E-7     0.4197079734050679       0.004545615657270954     0.010021442763731165     0.42347216648300123      0.0059530472517981825    0.01160587932658557
0                         -0.462                   0.7348839637039426       5.509926030811685E-7     0.41971804178490263      0.004447520645819193     0.010114973984220763     0.42348381832497434      0.005823562023922199     0.01169741414740571
0                         -0.461                   0.7416520798493818       6.063545809594079E-7     0.4197282026671935       0.004349617249590039     0.010206447676015574     0.42349556053903326      0.005695149716730506     0.011786633357021993
0                         -0.46                    0.7481947626181876       6.808536923423305E-7     0.41973845399441195      0.004251931688191484     0.010295863839273629     0.42350739084502503      0.005567986547051628     0.01187361375412792
0                         -0.459                   0.7545043879973669       7.041167500370467E-7     0.4197487940205518       0.004154401737093589     0.010383665224410171     0.42351930726721043      0.005441706098798842     0.011958786850204805
0                         -0.458                   0.7606485388739757       7.142601158915582E-7     0.41975922074828315      0.004057116300471478     0.010469501949572368     0.42353130779784476      0.005316457687878066     0.012041960549134558
0                         -0.457                   0.7666272152480146       7.112837899061676E-7     0.4197697324478737       0.003960044129995617     0.010553608942744297     0.42354339055601725      0.005192095000661774     0.012123238142819867
0                         -0.456                   0.7724404171194832       6.951877720808743E-7     0.4197803273895913       0.003863199930502195     0.010635986203723698     0.42355555363811653      0.005068572245275447     0.01220260846355277
0                         -0.455                   0.7780881444883818       6.659720624156796E-7     0.4197910038437036       0.0037665983311760466    0.010716633732601346     0.4235677951408962       0.0049459118830990495    0.012280083408123768
0                         -0.454                   0.7835703973547107       6.236366609105794E-7     0.4198017600804791       0.0036702538818309564    0.01079555152948765      0.4235801131845381       0.004824199352103321     0.012355697937310886
0                         -0.453                   0.7888809442113873       5.718461406843245E-7     0.41981259443304353      0.003574152461211619     0.01087294270595289      0.4235925059744475       0.0047034597762566       0.0124296417964283
0                         -0.452                   0.7940404380433985       5.240837855786441E-7     0.4198235053476316       0.003478329152042618     0.01094863940195851      0.42360497188440327      0.004583540927702584     0.01250191921139619
0                         -0.451                   0.7990747841109413       4.779298047173302E-7     0.4198344912177112       0.003382763167673747     0.011022853689418563     0.42361750929042735      0.004464454042587129     0.012572629807631384
0                         -0.45                    0.8039839824140167       4.3338419810038115E-7    0.4198455505608743       0.0032874626196830706    0.011095585568506178     0.4236301166158762       0.004346127250528912     0.012641756486416711
0                         -0.449                   0.8087680329526239       3.904469657277983E-7     0.4198566818947121       0.0031924355892566946    0.011166835039002652     0.42364279227466023      0.004228541952875697     0.012709297455046623
0                         -0.448                   0.8134269357267631       3.491181075995817E-7     0.41986788373681605      0.0030976901291962177    0.011236602101031173     0.42365553468655054      0.004111729282769386     0.012775266226470437
0                         -0.447                   0.8179606907364342       3.0939762371573105E-7    0.419879154604778        0.0030032342611155944    0.011304886754748432     0.4236683422924832       0.003995766598721781     0.01283969161948123
0                         -0.446                   0.8223633278023407       2.7891120197110127E-7    0.41989049312404886      0.0029090562639792713    0.011371887389216797     0.42368121364071376      0.0038805800245429382    0.012902759366764618
0                         -0.445                   0.8266612872001384       2.540242299029008E-7     0.41990189790315036      0.0028151746496234563    0.011437455761747106     0.423694147343167        0.003766134674642046     0.01296442283383193
0                         -0.444                   0.8308622450566782       2.309595098605142E-7     0.419913367605468        0.0027215800593841295    0.011501733821198736     0.42370714203844         0.0036524017147063184    0.013024742825686251
0                         -0.443                   0.8349662013719604       2.0971704184393854E-7    0.4199249009406886       0.0026282768156669378    0.011564721567730089     0.42372019637826225      0.003539338380391651     0.01308371149846042
0                         -0.442                   0.8389731561459848       1.9029682585317658E-7    0.41993649661849897      0.002535269232331612     0.011626419001141796     0.4237333090117592       0.003426942013160015     0.013141331487368343
0                         -0.441                   0.842883109378751        1.726988618882286E-7     0.41994815334858654      0.0024425616106673715    0.011686826121636887     0.4237464785959309       0.0033152476367245003    0.013197615907372475
0                         -0.44                    0.8466960610702593       1.5692314994909432E-7    0.41995986984063804      0.002350158243305026     0.011745942929251591     0.4237597038061322       0.0032043255325710975    0.013252588352152147
0                         -0.439                   0.8504083775919087       1.2895285458300947E-7    0.4199716449504188       0.002258048947549464     0.011803975866866967     0.42377298344791514      0.0030940177772715216    0.013306437985164524
0                         -0.438                   0.8540439960650239       1.04171293899725E-7      0.4199834774131671       0.0021662451133212966    0.011860760027487349     0.4237863162955196       0.0029843968716031745    0.013359062893753645
0                         -0.437                   0.8576029164896052       8.257846789931971E-8     0.4199953660912692       0.0020747418223830403    0.011916406574239        0.42379970118370025      0.0028754016068403792    0.01341051804120701
0                         -0.436                   0.8610851388656529       6.417437658179385E-8     0.420007309847111        0.0019835412002490427    0.011970915507180541     0.42381313694063694      0.0027670078344789457    0.013460800538665512
0                         -0.435                   0.8644906631931661       4.895901994714867E-8     0.42001930754307903      0.0018926453694868685    0.012024286826404516     0.42382662239530605      0.002659222593011002     0.013509914867284895
0                         -0.434                   0.867819489472146        3.693239799538142E-8     0.42003135804155917      0.0018020564511595668    0.01207652053170808      0.42384015638485023      0.002552082387041863     0.013557872877786611
0                         -0.433                   0.871068856550869        2.9341196279716022E-8    0.4200434602366026       0.0017117724998972927    0.012127718670467157     0.42385373778172747      0.0024455985370005202    0.013604761390128912
0                         -0.432                   0.8742460136794921       2.6818793327974585E-8    0.42005561307796624      0.0016217969118266545    0.012177795076573576     0.42386736553384113      0.002339697145174023     0.01365057251249517
0                         -0.431                   0.8773614883624039       2.6565164520920984E-8    0.42006781548879574      0.0015321254050496452    0.012226857602330046     0.4238810385845606       0.0022343942306229047    0.013695357236827188
0                         -0.43                    0.8804152805996035       2.858030985855542E-8     0.4200800664552107       0.0014427588230091063    0.01227490624762139      0.42389475590427894      0.0021296519053691254    0.013739110031392871
0                         -0.429                   0.8834073903910912       3.286422934087762E-8     0.42009236496333074      0.0013536980082936429    0.012321941012382502     0.42390851646051664      0.0020254583818949245    0.013781830683255452
0                         -0.428                   0.8863378177368668       3.9416922967887664E-8    0.42010470999927546      0.0012649438038658059    0.012367961896823477     0.42392231922324053      0.0019218267719279623    0.01382352429769889
0                         -0.427                   0.8892065626369305       4.823839073958552E-8     0.420117100549164        0.001176497050788698     0.012412968900691018     0.42393616317018246      0.001818793853881532     0.013864201299480704
0                         -0.426                   0.8920103334398013       6.123175178000429E-8     0.42012953565635475      0.001088355955251938     0.01245706689819452      0.42395004733033204      0.001716322721649431     0.013903954148271896
0                         -0.425                   0.8947602412463832       7.447578656371583E-8     0.4201420143542021       0.0010005209007328683    0.012500176804175811     0.42396397076085196      0.001614398929077309     0.013942754387906136
0                         -0.424                   0.8974598249374487       8.642500353598052E-8     0.42015453570597844      9.129898453596399E-4     0.012542374756006985     0.42397793253318167      0.0015130100304745148    0.01398063698004049
0                         -0.423                   0.9001090845129981       9.707940269679767E-8     0.42016709879972947      8.257628774815331E-4     0.012583660753677868     0.42399193172796396      0.0014121314597457986    0.01401759915926163
0                         -0.422                   0.9027080199730316       1.0643898404616987E-7    0.4201797027235011       7.388400859906208E-4     0.012624034797040374     0.424005967425041        0.0013117598445359683    0.014053642091948143
0                         -0.421                   0.905256631317549        1.1450374758409523E-7    0.42019234656533894      6.522215586506608E-4     0.012663496886363852     0.424020038707388        0.001211912144894735     0.014088770876328779
0                         -0.42                    0.9077549185465503       1.2127369331057482E-7    0.4202050294132893       5.659073833967445E-4     0.01270204702149809      0.4240341446650438       0.001112624775512338     0.014122994542679602
0                         -0.419                   0.9102000358078832       1.357952990613793E-7     0.4202177504364288       4.798957474622567E-4     0.01273979928883981      0.4240482844561739       0.0010138151008424415    0.014156414307010399
0                         -0.418                   0.9126035563893778       1.4889075585962178E-7    0.4202305087362615       3.941859413283295E-4     0.012776662573642295     0.4240624572190554       9.15524894071468E-4      0.0141889737371457
0                         -0.417                   0.9149654802910343       1.605600637052546E-7     0.4202433034859706       3.087767984988947E-4     0.012812699041984047     0.4240766621276768       8.177204464714548E-4     0.01422070535308412
0                         -0.416                   0.9172858075128526       1.708032225982787E-7     0.42025613385873994      2.2366797337753394E-4    0.012847908693828835     0.4240908983534238       7.203867598924266E-4     0.014251608055522955
0                         -0.415                   0.9195645380548327       1.7962023253869303E-7    0.42026899902775283      1.38859118875197E-4      0.01288229152923396      0.42410516506808577      6.235263817127668E-4     0.01428168375186786
0                         -0.414                   0.9218016719169745       1.8701109352649808E-7    0.4202818981661928       5.434988803682604E-5     0.012915847548103298     0.42411946144686324      5.271587236843808E-4     0.014310937355946034
0                         -0.413                   0.9239955684606856       1.9091105450164694E-7    0.42029483046563304      -2.986033756006819E-5    0.012948635842099132     0.4241337866829012       4.312900586787438E-4     0.014339416071588035
0                         -0.41200000000000003     0.9261491424025547       1.8966866652705414E-7    0.42030779514933914      -1.1377262403263913E-4   0.012980605766987145     0.42414814000976603      3.358803714067505E-4     0.014367112966915374
0                         -0.41100000000000003     0.9282679526973577       1.876200827844369E-7     0.4203207914255609       -1.9738879083228085E-4   0.013011820873609177     0.4241625206587746       2.4094093192111328E-4    0.014394059759087587
0                         -0.41000000000000003     0.9303519993450952       1.8476530327379545E-7    0.42033381853948026      -2.807094278278975E-4    0.013042281162047233     0.4241769278784098       1.4644844515495018E-4    0.014420254006162375
0                         -0.40900000000000003     0.9324012823457666       1.811043279951295E-7     0.42034687573627894      -3.637351251649889E-4    0.013071986632320577     0.42419136091587384      5.239487317045512E-5     0.014445695591055565
0                         -0.40800000000000003     0.9344158016993722       1.7663715694843934E-7    0.42035996226113886      -4.464664744189995E-4    0.013100937284335385     0.424205819019415        -4.1213062729342066E-5   0.014470386722018431
0                         -0.40700000000000003     0.9363955574059118       1.7136379013372477E-7    0.4203730773592418       -5.289040667218818E-4    0.01312913311830853      0.4242203014406517       -1.3435440280137192E-4   0.014494331932374987
0                         -0.406                   0.9383382807795048       1.6528229491380706E-7    0.4203862203101237       -6.110485634581388E-4    0.013156636816279765     0.42423480745983244      -2.270504922763085E-4    0.014517584088940038
0                         -0.405                   0.9402496217216866       1.602211606331817E-7     0.4203993903867653       -6.929016848252108E-4    0.013183400923182329     0.424249336372195        -3.19307241845728E-4     0.014540126272082999
0                         -0.404                   0.9421316176871184       1.5654685821562568E-7    0.4204125868808825       -7.744645897240181E-4    0.01320947176713939      0.4242638874832076       -4.1113225606025794E-4   0.014561981009186178
0                         -0.403                   0.9439842686757988       1.5425938766113964E-7    0.420425809099212        -8.557379985298326E-4    0.013234849348106219     0.4242784601045906       -5.025413719148571E-4    0.014583146939053823
0                         -0.402                   0.9458075746877282       1.5335874896972337E-7    0.4204390563484911       -9.367226320829299E-4    0.013259533666162622     0.4242930535476197       -5.935374655191602E-4    0.014603624532359943
0                         -0.401                   0.9476015357229068       1.5384494214137675E-7    0.4204523279354567       -0.0010174192112149811   0.013283524721316308     0.4243076671249576       -6.841108276063822E-4    0.014623416092955047
0                         -0.4                     0.9493661517813344       1.5571796717609985E-7    0.4204656231668459       -0.0010978284571938255   0.013306822513391338     0.42432230015248557      -7.742395358896762E-4    0.014642525755632003
0                         -0.399                   0.9510990711641102       1.6197991136200123E-7    0.4204789413995299       -0.0011779511248399919   0.013329497372930488     0.4243369519864838       -8.639729318697767E-4    0.014661014294631385
0                         -0.398                   0.9528069895900866       1.6908460753571082E-7    0.42049228194822436      -0.0012577890860771459   0.01335149333205031      0.42435162197058013      -9.532837696829219E-4    0.014678848436846862
0                         -0.397                   0.9544899070592628       1.7703205569721265E-7    0.4205056441728265       -0.0013373431758608124   0.013372849188583972     0.42436630947215487      -0.0010421937213569736   0.014696049020973165
0                         -0.396                   0.9561478235716395       1.8582225584650578E-7    0.4205190274332339       -0.001416614179822936    0.013393564942493441     0.424381013857206        -0.0011307129475159887   0.01471261540602949
0                         -0.395                   0.9577807391272166       1.9545520798359068E-7    0.420532431089344        -0.0014956028816345622   0.01341364059403018      0.4243957344918309       -0.001218840440333181    0.014728548432273872
0                         -0.394                   0.959388653725994        2.0593091210846788E-7    0.42054585450105464      -0.0015743100670151306   0.013433076143035638     0.4244104707437087       -0.0013065643307684117   0.01474385042238207
0                         -0.393                   0.9609704545577284       2.1667061178063484E-7    0.42055929704004025      -0.0016527363999945155   0.013451909314503673     0.42442522199096344      -0.001393880769719495    0.014758550158808724
0                         -0.392                   0.9625273758832514       2.2612858825672866E-7    0.4205727580978362       -0.0017308831169372764   0.013470107312154507     0.42443998763592256      -0.0014808132770498463   0.014772642347255957
0                         -0.391                   0.9640628168585865       2.349788732663569E-7     0.4205862370567338       -0.0018087516203607054   0.01348771151770343      0.4244547670804687       -0.0015673542712821723   0.014786149009544064
0                         -0.39                    0.9655767774837344       2.432214668095194E-7     0.42059973332294087      -0.0018863427163912409   0.013504721931121264     0.42446955973830736      -0.0016535194592774913   0.01479906880974085
0                         -0.389                   0.9670692577586948       2.5085636888621703E-7    0.42061324630266533      -0.0019636572114873118   0.013521138552357223     0.4244843650224132       -0.001739314561497222    0.014811401624985695
0                         -0.388                   0.9685402576834676       2.5788357949644886E-7    0.420626775402115        -0.0020406959117678773   0.013536961381528913     0.42449918234624573      -0.0018247356342415604   0.01482314854577417
0                         -0.387                   0.969989777258053        2.6430309864021584E-7    0.4206403200274977       -0.0021174596233154356   0.01355219041844086      0.4245140111249615       -0.0019097693352197935   0.014834311876271648
0                         -0.386                   0.9714161776716371       2.674341133326516E-7     0.42065387960756256      -0.00219394897898111     0.013566866623784247     0.42452885079156377      -0.0019944294504809653   0.01484492490301933
0                         -0.385                   0.9728226898657168       2.6789988308867065E-7    0.4206674535664135       -0.0022701654876476633   0.013580958890019534     0.42454370078786924      -0.0020787180142679924   0.014854976953539158
0                         -0.384                   0.974210615552917        2.66897385005234E-7      0.4206810413409662       -0.0023461101677210473   0.013594498027134513     0.4245585605637174       -0.0021626404003327092   0.014864483777174631
0                         -0.383                   0.9755799547332377       2.644266190823418E-7     0.4206946423780915       -0.0024217838213969186   0.01360748403537106      0.4245734295734112       -0.0022462075976463387   0.014873444597235597