% Model:              C1fullScale.mph
% Version:            COMSOL 5.6.0.280
% Date:               May 4 2021, 09:50
% Dimension:          2
% Nodes:              10201
% Expressions:        6
% Description:        Velocity field, x component, Velocity field, y component, Dependent variable u2, Gradient of u2, x component, Gradient of u2, y component, 
% Length unit:        m
% x                       y                        u (m/s)                  v (m/s)                  u2 (1)                   u2x (1/m)                u2y (1/m)                -u*u2+u2x
-0.5                      -0.5                     1.1974046302871698E-16   -1.8921970662136004E-22  0.6217700443664226       -0.31475051804945603     0.006219062440210116     -0.3147505180494561
-0.49                     -0.5                     2.6517943937700073E-17   -2.2470069096165298E-23  0.6186080455915459       -0.31765367107422454     0.006187518080048265     -0.31765367107422454
-0.48                     -0.5                     -6.482139622754301E-16   7.88044263798901E-22     0.615416882492629        -0.32058303084030415     0.006155574377413278     -0.32058303084030376
-0.47                     -0.5                     -2.1052442839890876E-16  1.585438853253577E-22    0.6121963088640576       -0.3235361123636973      0.006123454114531942     -0.32353611236369717
-0.46                     -0.5                     5.961401068407456E-16    -1.0778430288640969E-21  0.6089460692908113       -0.3265159285264622      0.006090911963846091     -0.3265159285264626
-0.45                     -0.5                     2.277479325837694E-16    -1.569414062827249E-22   0.6056659134328007       -0.32951966464934224     0.006058208334544792     -0.32951966464934235
-0.44                     -0.5                     2.4789226088784964E-16   -5.014694532346621E-22   0.6023555822078726       -0.3325507453074359      0.006025050781892795     -0.33255074530743606
-0.43                     -0.5                     -2.9583873710342776E-16  1.5763648717000182E-22   0.5990148205491548       -0.33560601141200425     0.005991750562038185     -0.3356060114120041
-0.42                     -0.5                     -6.384126067979726E-17   1.5047386682739606E-22   0.5956433648465687       -0.33868932654284795     0.005957970246723051     -0.3386893265428479
-0.41000000000000003      -0.5                     -3.947254689786005E-16   3.1834572692377856E-22   0.5922409547630049       -0.3417971354797425      0.005924069049987194     -0.3417971354797423
-0.4                      -0.5                     -1.860899327924011E-16   7.223857031076944E-22    0.5888073214833558       -0.34493377597113045     0.005889661475865383     -0.34493377597113034
-0.39                     -0.5                     1.2224186185660211E-16   -1.9002253709589369E-22  0.5853421985253836       -0.3480952863590431      0.005855144806058238     -0.34809528635904313
-0.38                     -0.5                     2.2464718704134353E-16   -1.1652459417613782E-21  0.5818453110983244       -0.35128652972861646     0.005820096613867933     -0.35128652972861657
-0.37                     -0.5                     3.112849743002059E-17    -4.3936051724795907E-23  0.5783163853227516       -0.3545031149612094      0.005784961234661584     -0.3545031149612094
-0.36                     -0.5                     -1.7078460466503923E-16  1.0015947413397407E-21   0.5747551395048581       -0.3577504556482903      0.005749259330490739     -0.35775045564829017
-0.35                     -0.5                     -2.0462271082032338E-16  1.4253479125046388E-22   0.5711612912376242       -0.36102371004306794     0.0057134918550360795    -0.3610237100430678
-0.33999999999999997      -0.5                     -3.454034789064325E-16   2.2869093837790074E-21   0.567534550573637        -0.36432890670286866     0.00567712677242758      -0.36432890670286844
-0.32999999999999996      -0.5                     -1.8205965370146847E-16  2.204007531475027E-22    0.56387462531072         -0.36766070145977137     0.0056407118736875655    -0.36766070145977126
-0.32                     -0.5                     -9.949038402174931E-17   9.711876410956558E-22    0.5601812157176679       -0.3710258115225689      0.005603672088945793     -0.37102581152256886
-0.31                     -0.5                     -6.598230991990425E-16   1.7628824844885524E-21   0.5564540179941644       -0.37441833925024903     0.005566612123532305     -0.37441833925024864
-0.3                      -0.5                     2.2813938828125876E-16   -3.06450090122451E-21    0.5526927210980782       -0.3778457739356354      0.0055288903908312075    -0.3778457739356355
-0.29000000000000004      -0.5                     1.675870424506176E-16    -6.864944823174817E-23   0.5488970076693525       -0.38130176286001427     0.0054911869906802465    -0.3813017628600144
-0.28                     -0.5                     6.122723898857299E-17    -7.437899528704379E-22   0.5450665529899622       -0.3847941411540617      0.005452747726602564     -0.38479414115406174
-0.27                     -0.5                     1.379654835605182E-16    -2.5505716540058823E-22  0.5412010243606782       -0.3883167694337119      0.0054143461995630904    -0.38831676943371196
-0.26                     -0.5                     6.778969633909226E-16    -1.1844520855789873E-20  0.5373000814481478       -0.3918773183521533      0.0053752138557027086    -0.39187731835215367
-0.25                     -0.5                     1.304744295307933E-16    -6.285108400767646E-22   0.5333633725683253       -0.39546998919933546     0.005336095528257628     -0.3954699891993355
-0.24                     -0.5                     4.1494075514326237E-16   -9.790503312946284E-21   0.5293905393197784       -0.39910260591925967     0.005296261969129598     -0.3991026059192599
-0.22999999999999998      -0.5                     -1.7721878632042107E-16  1.732177099406941E-21    0.525381208518084        -0.4027694865991066      0.00525642733793429      -0.4027694865991065
-0.21999999999999997      -0.5                     2.8197869704907314E-16   -8.415202323841985E-21   0.5213350005228039       -0.406478577618308       0.005215884204725621     -0.4064785776183082
-0.21000000000000002      -0.5                     -5.4280599898526955E-17  7.121991478056465E-22    0.5172515175369701       -0.41022442284959015     0.005175313119252708     -0.4102244228495901
-0.2                      -0.5                     -5.411874423447616E-16   1.8534958610608845E-20   0.5131303559101696       -0.4140149431159331      0.005133983274501212     -0.41401494311593284
-0.19                     -0.5                     2.755985172015187E-16    -3.9122289281477896E-21  0.5089710907638749       -0.4178449900305389      0.00509253931731114      -0.41784499003053904
-0.18                     -0.5                     -8.283169335746312E-16   2.903617051344104E-20    0.504773292835363        -0.4217221972656857      0.005050292375919169     -0.4217221972656853
-0.16999999999999998      -0.5                     -8.87949528608562E-16    1.1059094174326481E-20   0.5005365114835496       -0.42564128832544146     0.005007905233959839     -0.425641288325441
-0.15999999999999998      -0.5                     2.1705392145770792E-16   -6.69611706989727E-21    0.4962602951137498       -0.42960950275538173     0.004964770282929894     -0.42960950275538184
-0.14999999999999997      -0.5                     -5.968139433053472E-16   1.205733947868904E-20    0.49194418242812504      -0.4336216019414212      0.004921418733867468     -0.4336216019414209
-0.14                     -0.5                     -4.6865266228689606E-17  4.551879697058737E-22    0.48758771909620136      -0.4376783890329079      0.004877626988297035     -0.4376783890329079
-0.13                     -0.5                     -6.83296649963098E-16    2.9016224549750237E-21   0.48319047704241713      -0.4417763531570798      0.0048333869705458       -0.44177635315707947
-0.12                     -0.5                     -6.005295146410353E-16   -5.822682915239581E-21   0.47875208479545384      -0.44590674772124794     0.004788815024631307     -0.44590674772124766
-0.10999999999999999      -0.5                     9.224566959383757E-16    1.638573962666105E-20    0.4742722845700555       -0.4500544223996664      0.0047438483625756285    -0.45005442239966686
-0.09999999999999998      -0.5                     1.7275051342629105E-16   4.544121300851448E-21    0.46975102849369715      -0.4541915674543914      0.0046985866788861       -0.45419156745439143
-0.08999999999999997      -0.5                     -9.3716583796764E-16     -2.059716064217682E-20   0.4651886517636313       -0.45826832709720394     0.004652924342005709     -0.4582683270972035
-0.08000000000000002      -0.5                     2.3862662287902416E-16   1.1055981632576319E-20   0.4605861843398603       -0.4621914343681931      0.004606746249934263     -0.4621914343681932
-0.07                     -0.5                     -2.390156442329251E-16   -8.257993416265302E-21   0.45594595263914783      -0.465782634707999       0.004560174994906888     -0.4657826347079989
-0.06                     -0.5                     -9.624146341403937E-17   9.872022976204243E-21    0.45127287069003946      -0.46867282034365393     0.004513399218237185     -0.4686728203436539
-0.04999999999999999      -0.5                     1.5071334530946864E-15   -2.0456479066648783E-19  0.44657736494543177      -0.47006704631088153     0.0044663858266533575    -0.4700670463108822
-0.03999999999999998      -0.5                     1.5642641380057278E-16   -3.092323546748393E-20   0.44188253636267505      -0.4680810163137223      0.0044195688149120515    -0.46808101631372234
-0.02999999999999997      -0.5                     1.7409301395095595E-15   -3.800992067872463E-19   0.4372405598246402       -0.45852194639337845     0.004373556880504659     -0.45852194639337923
-0.020000000000000018     -0.5                     -4.6936516978739376E-15  6.174990428944727E-19    0.43276242431807427      -0.43381530471018        0.004329180964837549     -0.43381530471017793
-0.010000000000000009     -0.5                     -2.005335513403402E-15   8.35365221927816E-20     0.42864238906904006      -0.38599086387970705     0.004288546468104369     -0.3859908638797062
0                         -0.5                     2.549078049582181E-15    3.755528403961717E-20    0.4251214480405142       -0.3150309731305926      0.004253773211167724     -0.3150309731305937
0.010000000000000009      -0.5                     8.106413398613953E-15    4.0567446700682726E-19   0.4223801277327306       -0.23262906642339692     0.00422544883423396      -0.23262906642340034
0.020000000000000018      -0.5                     -1.627803216266676E-15   -2.4072197660569555E-19  0.4204529360859075       -0.15482922342010247     0.004205295073854002     -0.15482922342010177
0.030000000000000027      -0.5                     -1.6265195012694824E-15  -3.522735543122937E-19   0.4192265670308748       -0.09381366994851598     0.004192284078575415     -0.0938136699485153
0.040000000000000036      -0.5                     1.0209932592939642E-15   2.2146394619517784E-19   0.41850911384830014      -0.05285667615052064     0.0041849825718881265    -0.05285667615052107
0.050000000000000044      -0.5                     6.173543833191905E-16    8.887066240521777E-20    0.4181147046550035       -0.028300696997866165    0.004181056698777786     -0.02830069699786642
0.06000000000000005       -0.5                     9.815550896343835E-16    6.825931857154641E-20    0.4179070006935861       -0.014646858863000416    0.004178891829770663     -0.014646858863000826
0.07000000000000006       -0.5                     -8.777044284241218E-16   -2.828624738407421E-20   0.417800335276195        -0.007474862629300563    0.004177948578654842     -0.007474862629300196
0.07999999999999996       -0.5                     -2.4193237283074077E-16  -5.465081498734277E-21   0.4177453912311557       -0.003929300576836874    0.004177597222098006     -0.003929300576836773
0.08999999999999997       -0.5                     5.324119795990617E-16    -1.516803117709633E-20   0.41771503944761057      -0.002355910067822509    0.004177085323589491     -0.0023559100678227315
0.09999999999999998       -0.5                     3.9157426836263423E-16   -1.3182822333619193E-20  0.41769488272561683      -0.0017946848907208837   0.004176878297451712     -0.0017946848907210472
0.10999999999999999       -0.5                     2.3418712480206044E-16   -4.913454684978526E-21   0.4176774794261877       -0.0017482449065527508   0.0041767539528422765    -0.0017482449065528486
0.12                      -0.5                     -9.032963211973868E-17   1.9597738925481082E-22   0.41765912481532297      -0.0019502672045217725   0.004176571755934274     -0.0019502672045217347
0.13                      -0.5                     4.337394848625582E-16    2.6628530282820506E-21   0.4176380884211279       -0.0022669463307870715   0.004176373878081275     -0.0022669463307872528
0.14                      -0.5                     3.449143222154286E-16    3.1048879507176417E-21   0.4176136539890118       -0.0026225952694648937   0.00417614085042227      -0.0026225952694650377
0.15000000000000002       -0.5                     8.285631970197225E-17    1.0798522404378297E-21   0.4175856252352618       -0.0029822202402366824   0.0041758661158118986    -0.002982220240236717
0.16000000000000003       -0.5                     3.0935642528453253E-16   1.0883386248830319E-20   0.4175540562305564       -0.003328461261815091    0.004175559707847742     -0.00332846126181522
0.17000000000000004       -0.5                     5.108996126656013E-17    9.60129190091771E-22     0.41751911627572225      -0.0036559002909782585   0.004175211840244185     -0.00365590029097828
0.18000000000000005       -0.5                     -7.637262381822729E-17   -2.7479845391087545E-21  0.4174810217420935       -0.003959401319879078    0.004174838613461492     -0.0039594013198790455
0.19000000000000006       -0.5                     -5.654128770709852E-17   -1.1328586031348264E-21  0.4174399955518388       -0.004242133584024654    0.004174422153448084     -0.00424213358402463
0.20000000000000007       -0.5                     6.154776094486981E-18    1.8403489751028408E-22   0.4173962590581662       -0.004501918542033988    0.004173997149566299     -0.00450191854203399
0.20999999999999996       -0.5                     -1.0815171157796867E-16  -1.6881974496164486E-21  0.4173500164109076       -0.0047434335720331      0.0041735299294514356    -0.004743433572033055
0.21999999999999997       -0.5                     -6.852171125077836E-16   -1.6667908435661906E-20  0.41730145966904536      -0.004965200354247972    0.004173048756415477     -0.004965200354247685
0.22999999999999998       -0.5                     -4.566689944606378E-16   -6.278068566502545E-21   0.4172507621301746       -0.005171694284142395    0.004172537838700337     -0.005171694284142204
0.24                      -0.5                     -3.171738084589035E-16   -4.757898997310242E-21   0.41719808458670427      -0.005361566648046639    0.0041720172842579974    -0.005361566648046506
0.25                      -0.5                     1.6284844968833753E-16   1.5105501176707341E-21   0.41714357213826714      -0.005538790417121347    0.0041714672713801014    -0.005538790417121415
0.26                      -0.5                     -5.308840363441557E-16   -6.7194626820979595E-21  0.41708735886961357      -0.005702014160203818    0.004170909862178243     -0.005702014160203597
0.27                      -0.5                     -1.3531834494601527E-16  -1.2053784474162819E-21  0.4170295665289411       -0.0058547032844487035   0.004170327514666045     -0.005854703284448647
0.28                      -0.5                     1.5320253676271164E-17   1.7364894368946195E-22   0.4169703076087585       -0.005995543713192186    0.004169738247060298     -0.005995543713192192
0.29000000000000004       -0.5                     -2.9059852033543583E-16  -1.7002988309017115E-21  0.4169096849412776       -0.006127542984455491    0.004169130762234921     -0.006127542984455369
0.30000000000000004       -0.5                     7.9414023828674585E-16   6.984378280798649E-21    0.41684779354020274      -0.006249447053437542    0.004168512312764438     -0.006249447053437873
0.31000000000000005       -0.5                     1.5701055345086257E-16   1.0405164356921894E-21   0.4167847209071645       -0.006363858268412081    0.0041678804012512905    -0.006363858268412146
0.32000000000000006       -0.5                     7.367287247089444E-17    5.707466165952716E-22    0.4167205478083274       -0.006469653174243092    0.00416723934926604      -0.006469653174243122
0.33000000000000007       -0.5                     -4.025521490756671E-16   -2.2706153534451386E-21  0.4166553491535515       -0.006569017708652561    0.0041665871261123075    -0.006569017708652394
0.33999999999999997       -0.5                     4.129382062739181E-16    2.311882124007175E-21    0.41658919399400896      -0.006661035946985791    0.0041659258878106765    -0.006661035946985963
0.35                      -0.5                     -4.506732826389918E-16   -1.9665219868999055E-21  0.41652214679226984      -0.0067474771652979515   0.0041652555531478215    -0.006747477165297764
0.36                      -0.5                     1.5515141841196956E-16   4.761603892146178E-22    0.41645426685757514      -0.006827637764359375    0.004164576372493411     -0.00682763776435944
0.37                      -0.5                     1.4232041231865048E-16   4.0492273957126607E-22   0.4163856099111093       -0.006902945576823754    0.004163890476034618     -0.006902945576823813
0.38                      -0.5                     2.3774965123018375E-16   6.581054447172129E-22    0.41631622710442096      -0.006972846454352644    0.004163195843199898     -0.0069728464543527425
0.39                      -0.5                     -4.797636700784943E-17   -1.4490304881605628E-22  0.416246166755699        -0.007038516317564607    0.004162495777428524     -0.007038516317564587
0.4                       -0.5                     -1.7721738190670743E-16  -4.713364081555547E-22   0.4161754731435711       -0.0070995234735928316   0.004161788046399498     -0.007099523473592758
0.41000000000000003       -0.5                     -1.756614141211152E-16   -4.261374798107237E-22   0.4161041882848276       -0.007156827687165656    0.004161075912323353     -0.007156827687165583
0.42000000000000004       -0.5                     1.4654350571340988E-16   2.2142551219406625E-22   0.4160323506187652       -0.007210099806497895    0.004160356832605377     -0.007210099806497955
0.43000000000000005       -0.5                     9.689662795892095E-17    1.6300490332141606E-22   0.41595999677930034      -0.007260123623129395    0.004159633962985307     -0.007260123623129435
0.44000000000000006       -0.5                     -5.980309983372172E-16   -4.2133901177328156E-22  0.4158871602090789       -0.007306652913004221    0.00415890490505245      -0.007306652913003972
0.45000000000000007       -0.5                     -5.028690757524274E-16   -9.160203448905045E-22   0.4158138729141527       -0.0073503275328109545   0.004158172466395242     -0.007350327532810745
0.45999999999999996       -0.5                     1.653497754450549E-17    2.734096640006435E-23    0.4157401640656794       -0.0073909658721515465   0.0041574345971485535    -0.0073909658721515534
0.47                      -0.5                     -3.1258559250812982E-16  -3.1385158877266234E-22  0.41566606166047826      -0.007429091220597543    0.004156694473947922     -0.007429091220597413
0.48                      -0.5                     -4.503764430815555E-17   2.5610206829652764E-23   0.4155915911880709       -0.007464578962655272    0.004155949140146313     -0.007464578962655253
0.49                      -0.5                     -3.26358700452727E-17    -1.916356713118975E-23   0.41551677720507474      -0.0074978475630331325   0.00415520167834949      -0.007497847563033119
0.5                       -0.5                     -4.188427589047715E-16   -7.924781647264379E-23   0.4154416419936684       -0.007528818700262106    0.004154449616311533     -0.007528818700261931
-0.5                      -0.49                    0.06195363098931508      -1.2485635554476142E-4   0.6218463519177869       -0.3147695256724831      0.009010284680385701     -0.3532951650912495
-0.49                     -0.49                    0.06221348872951897      -1.360953381348425E-4    0.6186841550214677       -0.3176729523588431      0.0090026109184381       -0.35616345206440314
-0.48                     -0.49                    0.06249646185293193      -1.4825025869883397E-4   0.6154927943450504       -0.32060272763308095     0.008993948292871298     -0.35906884957562085
-0.47                     -0.49                    0.06280472944304358      -1.6140258762793397E-4   0.6122720187149362       -0.3235567284197987      0.008984782627328223     -0.3620103069007364
-0.46                     -0.49                    0.0631398929235724       -1.756546022207837E-4    0.6090215772748988       -0.32653599855861015     0.00897645132074734      -0.3649895557358924
-0.45                     -0.49                    0.0635046919897945       -1.9102863726332795E-4   0.6057412146460242       -0.3295409184073015      0.008967702515583507     -0.3680083276689212
-0.44                     -0.49                    0.06390092409147445      -2.0773055017909184E-4   0.6024306772609007       -0.33257125754430383     0.008958971470231851     -0.3710671345223282
-0.43                     -0.49                    0.06433188798405014      -2.2572468364493172E-4   0.5990897050463582       -0.3356276922693491      0.008949673245633824     -0.37416826406678905
-0.42                     -0.49                    0.06479958573915667      -2.4528213922850756E-4   0.5957180387700352       -0.33871021788780153     0.008940672354987718     -0.3773125000174427
-0.41000000000000003      -0.49                    0.06530788444213438      -2.663696360746785E-4    0.5923154141953351       -0.34181930942724487     0.00893111512881353      -0.38050217605080877
-0.4                      -0.49                    0.0658591823870093       -2.8923567245707526E-4   0.5888815662387326       -0.34495501642555515     0.008921869466505958     -0.3837382749008195
-0.39                     -0.49                    0.06645788797760985      -3.1390863110872735E-4   0.5854162251305332       -0.34811801010542637     0.008911935088954666     -0.38702353601542655
-0.38                     -0.49                    0.06710679212732479      -3.4069458003060856E-4   0.5819191195578          -0.3513081812186908      0.008902909070661696     -0.3903589066097719
-0.37                     -0.49                    0.06781126006633358      -3.695000820897443E-4    0.5783899719241785       -0.3545263847478627      0.008892985900457647     -0.3937477375537725
-0.36                     -0.49                    0.06857421930840096      -4.008090168417999E-4    0.5748285045139584       -0.3577723838725192      0.00888338133398799      -0.39719079980577954
-0.35                     -0.49                    0.069402082471033        -4.3448290204911783E-4   0.5712344313622628       -0.3610474373890226      0.008873775962840601     -0.40069229650472005
-0.33999999999999997      -0.49                    0.07029837981580114      -4.711830961433135E-4    0.5676074659451339       -0.3643511347891957      0.008864330494483593     -0.4042530200164911
-0.32999999999999996      -0.49                    0.07127045448058736      -5.105887871982888E-4    0.5639473136338444       -0.36768468129771226     0.0088541465614501       -0.40787746264350266
-0.32                     -0.49                    0.07232247833594518      -5.534618580394556E-4    0.5602536766535808       -0.3710482466887506      0.008844873273528904     -0.4115671810811628
-0.31                     -0.49                    0.07346289936857614      -5.995429235212612E-4    0.5565262498383308       -0.3744426393224517      0.008834892453838842     -0.41532667121029604
-0.3                      -0.49                    0.0746963957815829       -6.496556261390132E-4    0.5527647239479385       -0.3778683717662269      0.008825307236747227     -0.4191579043603395
-0.29000000000000004      -0.49                    0.07603284360481424      -7.033082052102269E-4    0.5489687803295642       -0.3813258924850777      0.008815435712302649     -0.4230655499038011
-0.28                     -0.49                    0.077477761073938        -7.612994407847794E-4    0.5451380942102313       -0.38481674023578494     0.008806387390152659     -0.4270528192513071
-0.27                     -0.49                    0.07904161947649345      -8.235839469440891E-4    0.541272334968887        -0.3883412641140943      0.008797163533424824     -0.4311243060478582
-0.26                     -0.49                    0.08073007334352793      -8.905606791597398E-4    0.5373711607422013       -0.39189990009735814     0.008788320462665198     -0.4352819133167728
-0.25                     -0.49                    0.08255468876189832      -9.616040080589155E-4    0.5334342214568085       -0.3954943818722288      0.00877972640898676      -0.4395318779995412
-0.24                     -0.49                    0.0845207078456003       -0.00103744123229325     0.5294611573341848       -0.3991250912755917      0.008772602975988364     -0.44387552307022776
-0.22999999999999998      -0.49                    0.08663878325440143      -0.001116273100045801    0.5254515971974862       -0.40279367449598846     0.008764727243069795     -0.44831816153626053
-0.21999999999999997      -0.49                    0.08891138134681449      -0.001198339701239759    0.5214051602454651       -0.40650087840890176     0.00875659492618505      -0.4528597314476832
-0.21000000000000002      -0.49                    0.09134489218627409      -0.0012806108176050106   0.517321450230996        -0.4102485344802027      0.008749968273988041     -0.4575032065772
-0.2                      -0.49                    0.09393490385465163      -0.0013616841648708107   0.5132000620167868       -0.4140369110339307      0.00874477435001775      -0.4622443095176788
-0.19                     -0.49                    0.09667626634532404      -0.0014354250721767797   0.5090405726188656       -0.41786915798367147     0.008740319911709232     -0.46708129996274916
-0.18                     -0.49                    0.09954822914722349      -0.0014972681045492132   0.5048425506284119       -0.4217442190873603      0.008736540895939386     -0.47200040100058627
-0.16999999999999998      -0.49                    0.10251891299876939      -0.0015367894584189213   0.5006055460968624       -0.4256638111924414      0.008730297772794065     -0.47698534761944705
-0.15999999999999998      -0.49                    0.10553720557718732      -0.0015434689793571363   0.49632910709992295      -0.42963153320110054     0.00873049300061628      -0.4820127202110469
-0.14999999999999997      -0.49                    0.10852609973943285      -0.0015018655647647966   0.492012762090792        -0.43364497626701104     0.008716559172370054     -0.48704120235875015
-0.14                     -0.49                    0.1113832859616044       -0.001397393141959373    0.48765604894657105      -0.4377051044009597      0.008706709244562065     -0.49202183755168183
-0.13                     -0.49                    0.11398475374554622      -0.001221132378643253    0.4832585281638349       -0.4418061767650461      0.00869399173391868      -0.4968902810932359
-0.12                     -0.49                    0.11620603816140129      -9.836295485034982E-4    0.4788198050631231       -0.4459427709399169      0.008675908940109672     -0.5015845234795169
-0.10999999999999999      -0.49                    0.11798184270730337      -7.417581963272118E-4    0.47433957532905036      -0.45010382096728657     0.008629142147700393     -0.5060672781336076
-0.09999999999999998      -0.49                    0.11943134178040271      -6.52344187703934E-4     0.46981770697567         -0.45426588429630743     0.008552368835070332     -0.5103768434326038
-0.08999999999999997      -0.49                    0.12110129909222608      -0.001060620530546974    0.4652543849150618       -0.4583861726188184      0.008410059915851868     -0.514729083040387
-0.08000000000000002      -0.49                    0.12438842924802519      -0.002625797716139597    0.4606503520766573       -0.4623934875663691      0.008149194176255092     -0.5196930612937343
-0.07                     -0.49                    0.13219173842591658      -0.006479129392725989    0.4560073455692302       -0.46615297179055726     0.0076638813007272695    -0.5264333755363415
-0.06                     -0.49                    0.149678136143819        -0.01422458398539698     0.45132892828184484      -0.4694163281462053      0.0066718651267136915    -0.5369704009192192
-0.04999999999999999      -0.49                    0.18458454581380934      -0.02729866515127185     0.44662233494382564      -0.4716626187823162      0.004598899389335542     -0.5541021996282253
-0.03999999999999998      -0.49                    0.24538408669571035      -0.044585995450608644    0.4419029750984183       -0.47164213704857016     -3.417568721599431E-5    -0.5800780950012128
-0.02999999999999997      -0.49                    0.3335582338022803       -0.057567104609461926    0.4372072380453906       -0.46605329053756017     -0.010461037156018637    -0.6118873646655538