% Model:              C1fullScale.mph
% Version:            COMSOL 5.6.0.280
% Date:               May 4 2021, 09:50
% Dimension:          2
% Nodes:              401
% Expressions:        6
% Description:        Velocity field, x component, Velocity field, y component, Dependent variable u2, Gradient of u2, x component, Gradient of u2, y component, 
% Length unit:        m
% x                       y                        u (m/s)                  v (m/s)                  u2 (1)                   u2x (1/m)                u2y (1/m)                -u*u2+u2x
-2                        0                        1.4993174364407515       6.311127622170258E-11    0.884213075565492        -0.0820312419326449      -5.582976624998357E-7    -1.407747323656891
-1.99                     0                        1.4993174670584004       8.245499127749062E-11    0.8833895475756215       -0.0826743560414493      -5.059211827970231E-7    -1.4071557349383965
-1.98                     0                        1.4993175008351358       1.479750063082195E-10    0.8825595781030202       -0.08332332486054432     6.741816532904751E-7     -1.4065603458400764
-1.97                     0                        1.499317538134624        1.4445251829269194E-10   0.8817230419408084       -0.08398390758176369     3.452061352301736E-7     -1.4059667281410284
-1.96                     0                        1.4993175790357043       1.366266475127142E-10    0.8808798993183561       -0.08464576869848597     -6.980865940998229E-10   -1.4053644867656987
-1.95                     0                        1.4993176241179584       1.7890286453151772E-10   0.8800300756061579       -0.08531897374113225     -5.109437361802704E-7    -1.4047635758513042
-1.94                     0                        1.4993176738464808       1.8406024672523397E-10   0.8791735191350806       -0.08599287159196335     6.244655542663532E-8     -1.404153267208997
-1.93                     0                        1.499317728315928        9.163544200385368E-11    0.878310160227763        -0.08668125251546478     1.1502613247366414E-6    -1.403547246704953
-1.92                     0                        1.4993177880291442       8.133469017366967E-11    0.8774398905910359       -0.08737267482995101     4.4402449923562206E-7    -1.4029339107194372
-1.91                     0                        1.4993178532382556       2.1155015780951174E-10   0.8765626841595002       -0.08807203752437322     -9.714123215422727E-7    -1.4023181193671583
-1.9                      0                        1.4993179250215936       1.7119601245868738E-10   0.8756784364509248       -0.08877807087627416     -1.8370563604305054E-6   -1.4016984472020282
-1.89                     0                        1.4993180033455928       7.28006638935119E-11     0.8747871123678348       -0.08948922602731428     8.774243327305612E-7     -1.4010732926951133
-1.88                     0                        1.499318088827596        1.7706295164631034E-10   0.8738886090383684       -0.09021285379654678     6.128368552573754E-7     -1.4004498529481595
-1.87                     0                        1.4993181822290922       1.6093001798215666E-10   0.872982852315995        -0.09093849067817512     -1.5454520795095407E-6   -1.3998175539297608
-1.8599999999999999       0                        1.4993182838735346       1.950916921678661E-10    0.8720697952893322       -0.09167546567879113     6.105098508085056E-7     -1.399185654569937
-1.85                     0                        1.4993183947545177       1.5880426434134938E-10   0.8711493234328582       -0.09241890561602695     3.0124713966642675E-7    -1.3985491108168642
-1.84                     0                        1.4993185154619555       1.559452941909455E-10    0.8702214063816581       -0.09316819780959491     1.0409579300031572E-6    -1.3979072649489577
-1.83                     0                        1.4993186466559834       1.1545625973889924E-10   0.8692859254004224       -0.093927998437566       4.2443849385788184E-7    -1.3972645956660215
-1.82                     0                        1.4993187889093467       1.572184346797012E-10    0.8683428298130433       -0.09469447499284964     -5.608835175394295E-7    -1.3966171949462567
-1.81                     0                        1.499318943853086        1.3276525734735663E-10   0.8673920196282474       -0.09546756196633167     -1.8719220138628993E-6   -1.395964848741951
-1.8                      0                        1.499319111773716        1.5498985510520442E-10   0.866433463330029        -0.09624833649406916     -5.910925692853261E-7    -1.3953085871450728
-1.79                     0                        1.4993192938603694       4.925183104465907E-10    0.8654670111826857       -0.09704209297459303     -3.553522433951139E-8    -1.3946534810404616
-1.78                     0                        1.4993194911906107       7.218993579673741E-11    0.864492621470537        -0.09783584945511607     5.200221277117307E-7     -1.3939864868163587
-1.77                     0                        1.4993197043600701       -5.669691385932163E-11   0.8635102386075072       -0.0986449621259932      1.742050202796192E-7     -1.3933228777868947
-1.76                     0                        1.499319934871415        1.0254882951359065E-10   0.8625197178861381       -0.0994591821478271      -5.552371976127382E-7    -1.3926521893941828
-1.75                     0                        1.4993201839814687       -2.4556028533040417E-10  0.8615210286152458       -0.1002818642390327      1.106351681999461E-6     -1.391977731366347
-1.74                     0                        1.4993204534323197       6.604638804956005E-11    0.8605140635117416       -0.10111263122542788     7.32664013785239E-7      -1.3912989671147402
-1.73                     0                        1.4993207434838145       -7.859370726543919E-10   0.8594987447072784       -0.10195396394727517     -6.394046524472369E-7    -1.390618260885197
-1.72                     0                        1.4993210566215507       3.9075594639812325E-11   0.8584749762856222       -0.10279972038397571     -5.536445120069865E-7    -1.3899293289116954
-1.71                     0                        1.4993213938039116       -7.341308486311312E-10   0.8574426932101457       -0.10365950368177057     3.6189121358531303E-7    -1.3892416775725858
-1.7                      0                        1.499321756361606        -3.902457558460333E-10   0.8564017845652176       -0.10452320171113315     3.572012383545285E-7     -1.3885450294966688
-1.69                     0                        1.4993221472132312       -5.376040026396916E-10   0.8553521749723705       -0.1053997752556315      -1.809720002645458E-6    -1.3878482348587133
-1.68                     0                        1.4993225663435068       -3.0658112530147015E-10  0.85429377261927         -0.10628210760001992     6.84919812349529E-7      -1.3871440391748202
-1.67                     0                        1.4993230164702869       -3.8862893578399004E-10  0.853226474475047        -0.10717752124456027     -5.689833080554456E-7    -1.386439612686796
-1.66                     0                        1.499323500355773        -4.259337508894428E-10   0.8521502201947216       -0.10807457102603212     3.228299380922036E-7     -1.385723421997325
-1.65                     0                        1.499324018266066        -7.212935887042484E-10   0.8510648933426216       -0.10899106174327783     1.5302805571280626E-6    -1.3850130974349182
-1.6400000000000001       0                        1.4993245739159322       -1.0106538629089312E-9   0.8499703972485037       -0.1099084710656611      1.9592053804278574E-7    -1.3842899747614295
-1.63                     0                        1.4993251685686706       -1.1043555505202148E-9   0.8488666780460967       -0.11084066324498724     -1.2124335032039778E-8   -1.3835678383987786
-1.62                     0                        1.4993258039685755       -1.6485828384726546E-9   0.847753573459013        -0.11178025417178464     4.442502526072915E-7     -1.3828390622654523
-1.6099999999999999       0                        1.499326481805108        -1.1810856494653733E-9   0.8466310467429035       -0.1127299253732912      -6.057448500956897E-7    -1.3821062740733046
-1.6                      0                        1.4993272081815687       -9.49948342743249E-10    0.8454989538789364       -0.11368864742013612     -2.9300826601127235E-6   -1.3813682334598787
-1.5899999999999999       0                        1.4993279834782618       -1.2498726047547913E-9   0.8443572600569851       -0.11465171756447756     4.169821964869657E-7     -1.3806201856209475
-1.58                     0                        1.4993288077895002       -1.4634685363546996E-9   0.8432058195692589       -0.1156377574132994      9.006676531156857E-7     -1.3798805335892448
-1.57                     0                        1.4993296866835029       -1.4328609471758834E-9   0.8420445037414797       -0.11662540814249153     -1.0180313839147086E-7   -1.3791277301107698
-1.56                     0                        1.4993306218782771       -1.691958653113933E-9    0.8408733046359355       -0.11761909676358738     2.436041957373663E-7     -1.3783661915242265
-1.55                     0                        1.4993316159696515       -2.2952736490892857E-9   0.8396920357646628       -0.11863482257984913     8.361705685830739E-7     -1.3776116394797273
-1.54                     0                        1.4993326708384522       -2.735053388376569E-9    0.8385006076607348       -0.1196507982057801      5.564518485795516E-7     -1.3768421537894149
-1.53                     0                        1.4993337900869903       -2.716434705970438E-9    0.837298976864032        -0.120680878612556       -1.8154605116726372E-6   -1.3760715270300643
-1.52                     0                        1.4993349771522384       -2.301681242448821E-9    0.8360869529018424       -0.12172391382539698     8.753948436508506E-7     -1.3752983262517655
-1.51                     0                        1.499336233592275        -3.6310266939960723E-9   0.8348644916825402       -0.12277037517384154     4.0023720359198885E-7    -1.3745129576930706
-1.5                      0                        1.499337563986778        -3.5158852340856374E-9   0.8336314747653372       -0.12383601750748174     -2.508867594045756E-6    -1.3737310021448477
-1.49                     0                        1.4993389673559565       -3.36861238397512E-9     0.8323877544348044       -0.12490804859907458     4.4480918840335814E-7    -1.3729394447730976
-1.48                     0                        1.4993404453606478       -3.0835179612507167E-9   0.8311332701186644       -0.1259932739125313      -3.111283754869337E-7    -1.3721450012863012
-1.47                     0                        1.4993420056069577       -3.0391073188152597E-9   0.829867877565647        -0.1270855963346314      -2.432260552631146E-6    -1.3713413642726977
-1.46                     0                        1.499343646279548        -3.805326820654484E-9    0.8285915101558763       -0.12819304528857617     1.5842400387408245E-6    -1.3705364614019648
-1.45                     0                        1.4993453722929806       -5.6167690249379916E-9   0.8273039829328059       -0.12931281148818502     2.1708268465492655E-6    -1.3697272097780386
-1.44                     0                        1.499347183329767        -6.642047280622025E-9    0.8260052519169412       -0.13043396969073506     -3.146992838779562E-8    -1.3689026175679955
-1.43                     0                        1.4993490806373362       -6.482987530367014E-9    0.8246951799784404       -0.1315825910954547      -9.575717947310186E-7    -1.3680885510021719
-1.42                     0                        1.4993510630106162       -6.825711026934781E-9    0.8233735997307262       -0.13273345844738435     7.763433683769719E-7     -1.3672595404585262
-1.4100000000000001       0                        1.4993531368419812       -6.340314401051748E-9    0.8220404875170263       -0.13389356105192887     -2.478011589450124E-6    -1.3664225446216938
-1.4                      0                        1.499355295406115        -7.3325673925694E-9      0.8206956451152762       -0.1350751596891042      1.1314666020951758E-7    -1.365589521109431
-1.3900000000000001       0                        1.4993575401758685       -7.575392844092238E-9    0.8193389823345065       -0.13625958587725867     1.4480415955788316E-6    -1.3647416670005237
-1.38                     0                        1.4993598725727242       -7.931362721772638E-9    0.8179703901858041       -0.13746224683509367     -1.417249417489675E-6    -1.3638942268323424
-1.37                     0                        1.499362287554813        -7.918463865089503E-9    0.8165897161387152       -0.13867256258264207     1.1680215859967955E-6    -1.3630363873661215
-1.3599999999999999       0                        1.4993647857736383       -8.345904033298652E-9    0.8151968705277928       -0.13990020674918213     -3.368248620242753E-7    -1.3621776878914265
-1.35                     0                        1.4993673567089538       -9.226963430217529E-9    0.8137916968761029       -0.14113698821152618     2.1546884992232188E-7    -1.3613096936683426
-1.3399999999999999       0                        1.4993700001582224       -8.569497794359823E-9    0.8123740869913642       -0.14238704459851156     -5.040654900373347E-7    -1.360436379539289
-1.33                     0                        1.4993727075606016       -1.0929639435835901E-8   0.8109439097859101       -0.14365185359769378     -1.362670968760247E-7    -1.3595590192931741
-1.3199999999999998       0                        1.4993754694425767       -8.104669324532669E-9    0.8095010314724956       -0.14492698062101944     -9.092496176443773E-7    -1.3586729696993427
-1.31                     0                        1.4993782767100263       -1.2265528550092217E-8   0.8080453246582852       -0.14621803876964248     1.6574733774741609E-6    -1.3577836451593759
-1.2999999999999998       0                        1.4993811151995007       -1.2526808845173844E-8   0.8065766344417401       -0.14752000453935404     -2.0918774726086074E-6   -1.3568857781824704
-1.29                     0                        1.4993839798143265       -1.0987083386785192E-8   0.8050948943336529       -0.14883315162177782     1.3372057651607323E-6    -1.355979538415965
-1.28                     0                        1.4993868418693153       -1.3697105417818626E-8   0.8035998859531818       -0.15016852447241713     1.5676849050755486E-6    -1.3550756195983003
-1.27                     0                        1.4993896892164142       -1.582804486181778E-8    0.8020915221313628       -0.15150480579023554     -1.3422361554333205E-6   -1.3541525638819003
-1.26                     0                        1.4993925010008862       -1.2585665420557985E-8   0.8005696793623446       -0.1528686918351082      6.513387361338464E-7     -1.3532368655996914
-1.25                     0                        1.4993952411349012       -1.4420517764206453E-8   0.799034147298236        -0.1542377209866105      5.775470396591852E-7     -1.3523057189498693
-1.24                     0                        1.4993978969336148       -1.8335728998505052E-8   0.7974848861541518       -0.15562300116235878     -1.366503400520782E-6    -1.3513701622982373
-1.23                     0                        1.4994004168826638       -1.3022849717723036E-8   0.7959216461471622       -0.1570250002355717      3.559569093404443E-7     -1.3504302482745627
-1.22                     0                        1.4994027790272366       -2.2545025923279477E-8   0.7943443710287309       -0.1584350335893892      -1.539311042455397E-6    -1.3494771910145107
-1.21                     0                        1.499404930605022        -1.5627388522110718E-8   0.7927528641795597       -0.15986723247212678     -9.724775797680672E-8    -1.348524785774212
-1.2                      0                        1.4994068291581117       -2.4977845845219897E-8   0.7911470013972912       -0.16131047215318775     -7.57917192990284E-7     -1.3475616889162483
-1.19                     0                        1.4994084085590313       -2.598981591466899E-8    0.7895266236130156       -0.16276650855927194     -9.981079546642001E-7    -1.346589366785849
-1.18                     0                        1.4994096223592586       -1.4102284828080927E-8   0.7878915894033848       -0.1642441330546683      2.3652344110471804E-6    -1.3456163635820333
-1.17                     0                        1.499410387869378        -3.277495523502945E-8    0.7862417321489087       -0.1657279761386377      8.123077944320418E-7     -1.3446269966991244
-1.1600000000000001       0                        1.4994106490564478       -2.330567962823322E-8    0.7845769422058176       -0.1672369086547442      6.854041482216468E-7     -1.3436399308022924
-1.15                     0                        1.4994103019015006       -2.5466814176505036E-8   0.7828969863659033       -0.16875425932811516     4.805007913500654E-7     -1.3426380660127895
-1.1400000000000001       0                        1.4994092674868618       -2.0880077649299532E-8   0.7812017632955514       -0.1702925014381881      -1.5118624207415824E-6   -1.3416336651006155
-1.13                     0                        1.4994074458186322       -3.624697240330859E-8    0.7794911274336407       -0.1718401332951705      2.1635071431649743E-7    -1.3406149337187316
-1.12                     0                        1.499404652868156        -9.326608420383976E-9    0.7777648620740841       -0.1734129386161841      5.62174045070588E-7      -1.3395971916474254
-1.1099999999999999       0                        1.4994008322078705       -5.4166501563675294E-8   0.7760228582334295       -0.17499205833719245     -2.6433710104812655E-6   -1.338561377784727
-1.1                      0                        1.4993958084641734       -1.4512931800054717E-8   0.7742649221861391       -0.17659719531427007     1.0955157793951473E-7    -1.3375267742810062
-1.0899999999999999       0                        1.4993894723402619       -6.599115963246167E-8    0.7724908883094868       -0.1782143847169726      5.108004209206716E-7     -1.336479090126994
-1.08                     0                        1.4993815821501875       -1.0319486070171763E-9   0.7707006072615371       -0.1798453065020844      -5.371811641513933E-7    -1.3354196023819982
-1.0699999999999998       0                        1.4993719822981553       -7.456472354238687E-8    0.7688938911945894       -0.18150042783781473     6.975093542682878E-7     -1.3343583856551884
-1.06                     0                        1.4993604964928364       -2.2716641175411347E-8   0.7670705742429987       -0.18316924070250196     -4.5471331154420704E-7   -1.3332845577445296
-1.0499999999999998       0                        1.499346766069696        -1.5429861034929725E-8   0.7652304571690783       -0.18485417408160223     1.542579342223243E-7     -1.3321999853360948
-1.04                     0                        1.499330632151395        -8.38383908385313E-8     0.763373452166101        -0.18655665043548778     1.5118995341377653E-6    -1.3311058510392808
-1.03                     0                        1.4993117809617296       -8.859943416518102E-8    0.7614992609329829       -0.18828159618810847     -5.373149893812357E-7    -1.33000640929858
-1.02                     0                        1.4992900437753438       -1.3694659891437419E-8   0.759607785020032        -0.19002153308380604     4.285986252908081E-7     -1.3288939223385818
-1.01                     0                        1.4992648879699733       -1.0056845244935125E-7   0.7576987870045503       -0.19177794417651373     4.994864055032004E-6     -1.3277691311898754
-1                        0                        1.499236022874107        -3.704291144362866E-8    0.7557721680458133       -0.19355214404272353     -2.418550002781156E-6    -1.3266330034626699
-0.99                     0                        1.4992029267500195       -1.0033327883946225E-7   0.7538276395135478       -0.19535496204927327     -3.141202213261648E-6    -1.3254955654730427
-0.98                     0                        1.4991655226350349       -5.475795420730817E-9    0.7518650656087059       -0.1971601934257725      3.551161787254637E-7     -1.324330377460073
-0.97                     0                        1.4991230926210903       -1.3017305245403768E-7   0.7498842420763637       -0.19900451304267647     2.4371081475283922E-6    -1.3231732971320174
-0.96                     0                        1.499074828528161        -5.606171125645722E-8    0.7478849727514143       -0.20085038191622998     1.6180306123399028E-6    -1.3219859192023447
-0.95                     0                        1.49902063268531         -5.7574980302546905E-8   0.7458671358201837       -0.20272844273459817     -2.1495306840462665E-6   -1.3207986685709499
-0.94                     0                        1.4989597489618554       5.803456951907556E-8     0.7438303692871076       -0.2046248638806416      4.831644327887153E-7     -1.3195966474974485
-0.9299999999999999       0                        1.4988915826853708       -7.665303161501878E-8    0.7417746202906641       -0.20653289602083483     -3.6002507993928973E-7   -1.3183726306241483
-0.9199999999999999       0                        1.4988150937901064       5.0811724039815694E-8    0.7396996140568112       -0.20847148754709993     -2.899959209790324E-6    -1.3171444339661649
-0.9099999999999999       0                        1.498729985053083        -1.397468613962668E-7    0.7376051648559614       -0.2104222774554235      1.993284339292204E-6     -1.3158932551550753
-0.8999999999999999       0                        1.4986350180270833       -1.0280012533180059E-7   0.7354910315571788       -0.21240438230107836     -1.7475035442889483E-6   -1.3146369976375292
-0.8899999999999999       0                        1.49852914174192         -1.0089087880744888E-7   0.7333570649032639       -0.21439224392997994     7.894698573910895E-7     -1.3133491769898415
-0.8799999999999999       0                        1.4984118665058854       -2.1102212051014254E-7   0.7312029998078097       -0.21642195167083172     3.957358042157581E-6     -1.3120652034075544
-0.8699999999999999       0                        1.4982818975798522       -7.388730737597422E-8    0.7290286112194991       -0.218455872297476       1.5896913561145766E-7    -1.3107462433054315
-0.8599999999999999       0                        1.4981380539481304       1.059242748955467E-7     0.7268337287205962       -0.220525023056453       -3.728644698099866E-6    -1.3094222909457902
-0.8499999999999999       0                        1.4979788832193612       -2.832972016647614E-7    0.7246180786466835       -0.2226078366118232      1.5212228271294072E-6    -1.3080704168235413
-0.8400000000000001       0                        1.4978034343975768       -1.3541241124557283E-7   0.722381426401842        -0.2247226123564465      -1.8550957024769714E-6   -1.3067079937661459
-0.8300000000000001       0                        1.4976101400671855       -2.7974727895063013E-7   0.7201236082267427       -0.2268456839817828      2.0106657352106444E-6    -1.305310101763922
-0.8200000000000001       0                        1.4973973493970298       -2.9074824967966515E-7   0.717844317411938        -0.22901473089457675     2.0828025319245248E-6    -1.3039129090669328
-0.81                     0                        1.4971631367933593       -1.8659122218947544E-7   0.7155433133827894       -0.2311860749351678      1.338242522523502E-6     -1.3024711465108585
-0.8                      0                        1.4969062916938078       1.2501858191318567E-7    0.7132204843530594       -0.2333936187504992      -2.6442109650269144E-6   -1.301017849143499
-0.79                     0                        1.4966238318962166       -7.344817049128426E-8    0.7108753897226997       -0.23562530732143808     8.775877421970541E-7     -1.2995383570889412
-0.78                     0                        1.4963154698722418       -4.674311084426338E-7    0.7085079286589289       -0.23787748474381587     -7.925192150594961E-7    -1.2980288589233098
-0.77                     0                        1.4959775206021524       2.9846461772477254E-7    0.7061177709351504       -0.24015787476775707     -2.2628209734649507E-6   -1.296494186984442
-0.76                     0                        1.4956082872805831       -6.339367405699733E-7    0.7037047141961241       -0.24246298103819383     1.8838596364171563E-6    -1.2949295833883312
-0.75                     0                        1.495204793001624        -3.6273191351679404E-7   0.7012684325686988       -0.24479334444684744     1.1881472962747378E-6    -1.293333266004302
-0.74                     0                        1.4947642465259987       1.0757909390963581E-7    0.6988087504100774       -0.24715465441641601     -1.0457252340751096E-6   -1.29170898968891
-0.73                     0                        1.4942844697488515       1.844993422812441E-7     0.6963253037047825       -0.24953468664254008     -7.41537785127294E-7     -1.290042773861749
-0.72                     0                        1.4937616441194175       -4.928497530736736E-7    0.6938179367370466       -0.2519531888034996      -2.2213690604168508E-6   -1.2883518107033722
-0.71                     0                        1.4931913544711914       -8.172962089107022E-7    0.6912861986820631       -0.2543941781214728      2.432110969804429E-7     -1.2866167534587838
-0.7                      0                        1.4925730868519136       -3.154318941768731E-7    0.6887300295143272       -0.2568519143341592      3.4895916534188317E-6    -1.2848318204939682
-0.69                     0                        1.4919006587799553       -4.5946813542158564E-7   0.6861489510102251       -0.259363640519819       8.332285041957974E-7     -1.2830297125531491
-0.6799999999999999       0                        1.4911717292319218       -9.531648620003833E-8    0.6835427638299616       -0.2618737955328488      2.823359271723934E-6     -1.2811534406771397
-0.6699999999999999       0                        1.4903811859009732       7.221048394709191E-7     0.680911180236088        -0.2644450760172272      -6.814476210046922E-7    -1.2792622883107194
-0.6599999999999999       0                        1.4895251595332542       -5.668085481761307E-7    0.6782538410731632       -0.26702275656771246     3.536190547911292E-6     -1.2772989173962581
-0.6499999999999999       0                        1.488598002281378        1.3226100538365808E-6    0.6755705448665152       -0.2696469315585182      -2.2932773408954113E-6   -1.2752998950469547
-0.6399999999999999       0                        1.4875950414866776       2.599781947151721E-8     0.6728608396710859       -0.2722941709088604      -5.018745775915776E-7    -1.2732386196141303
-0.6299999999999999       0                        1.486513737551549        3.5691845883222174E-7    0.6701245644976658       -0.27497625301224254     6.799266546808496E-7     -1.2711256240087716
-0.6199999999999999       0                        1.4853420305873062       -2.2082702420595187E-8   0.6673612531984865       -0.27768600682363204     6.010271234827921E-7     -1.2689457257847614
-0.6099999999999999       0                        1.4840796048524953       9.728646952873805E-8     0.6645707518544836       -0.2804319700216412      -2.112041433870249E-6    -1.2667078688303688
-0.5999999999999999       0                        1.4827201528310048       1.4688806204566156E-6    0.6617525301366529       -0.28321237354449497     1.507424125638696E-6     -1.264406186165017
-0.5900000000000001       0                        1.4812580620227704       -1.967452610052599E-6    0.6589064319195891       -0.286020495992203       -9.876717848270565E-7    -1.262030960391752
-0.5800000000000001       0                        1.4796831396712216       1.1715495857295856E-6    0.6560320155147449       -0.28887078490254375     -3.706691609737241E-7    -1.259590297344241
-0.5700000000000001       0                        1.4779886116236098       -2.3659734759790027E-6   0.6531289697950652       -0.2917462225488189      -1.854021725934591E-7    -1.2570634018273859
-0.56                     0                        1.47617000881841         3.330331231817541E-6     0.6501969337060417       -0.2946670877341538      3.898635993696765E-7     -1.2544683010967046
-0.55                     0                        1.4742203898661745       -7.904589178332534E-7    0.6472355887216655       -0.29761520452878165     1.4592823542732777E-6    -1.2517831064692984
-0.54                     0                        1.4721258659163594       -7.027059796834E-7       0.6442444892785418       -0.3006078717580997      -1.336248338658249E-6    -1.2490168483991158
-0.53                     0                        1.4698866866339202       -9.763216524668645E-7    0.641223387302288        -0.30361697822707806     3.124218525026571E-6     -1.246142698381017
-0.52                     0                        1.46748974369675         -4.4053394740905234E-7   0.6381718002102321       -0.3067004401841066      -1.0153022887499353E-6   -1.2432110117091137
-0.51                     0                        1.4649238919332237       9.195330601712088E-7     0.6350893784986058       -0.30978390214114404     -5.154823098973728E-6    -1.2401415062167738