% Model:              C1fullScale.mph
% Version:            COMSOL 5.6.0.280
% Date:               May 4 2021, 09:50
% Dimension:          2
% Nodes:              1001
% Expressions:        6
% Description:        Velocity field, x component, Velocity field, y component, Dependent variable u2, Gradient of u2, x component, Gradient of u2, y component, 
% Length unit:        m
% x                       y                        u (m/s)                  v (m/s)                  u2 (1)                   u2x (1/m)                u2y (1/m)                -u*u2+u2x
0                         -0.5                     2.549078049582181E-15    3.755528403961717E-20    0.4251214480405142       -0.3150309731305926      0.004253773211167724     -0.3150309731305937
0                         -0.499                   0.07078735316862603      3.7466293263385756E-7    0.42512173028490574      -0.31509508102764594     -0.0036806002760755158   -0.34518832308898095
0                         -0.498                   0.1369610084733792       1.417808644556036E-6     0.4251140542411912       -0.315284822582584       -0.011671487152853747    -0.3735088721676644
0                         -0.497                   0.1986513010416837       -1.8220897122088782E-6   0.425098364660237        -0.315587578441886       -0.01972133095006459     -0.4000339216523342
0                         -0.496                   0.2559354507395734       -9.37087322761901E-7     0.42507462006381674      -0.3159995114807565      -0.027756724465908263    -0.42479117596474236
0                         -0.495                   0.3089144128014996       3.8580755324646245E-7    0.42504273428895273      -0.3165529206125399      -0.03601482526209778     -0.4478547472909556
0                         -0.494                   0.3576816593355064       1.67215337331807E-6      0.4250025914957372       -0.3173071486572413      -0.04438009305449167     -0.46932278080532697
0                         -0.493                   0.40230034030185896      3.5352103477473535E-7    0.42495409006137685      -0.3180179278982968      -0.05271959969931319     -0.4889771029426555
0                         -0.492                   0.44283570945401657      3.597971107943064E-7     0.42489714965355824      -0.3189152610936704      -0.06116121593792464     -0.5070748918054933
0                         -0.491                   0.47930956854697016      1.069166083355163E-6     0.42483171130760217      -0.31995615751988143     -0.06987322056523451     -0.5235820617717992
0                         -0.49                    0.5118170405536536       2.0851243574139762E-6    0.4247573447089411       -0.3210598143400877      -0.07885997675674868     -0.538457861462446
0                         -0.489                   0.5403671137307064       2.8078975222436037E-6    0.424674017359854        -0.3225506214486085      -0.08764365026290297     -0.5520304944857768
0                         -0.488                   0.5649354303965042       -2.128322065229513E-6    0.4245815544120366       -0.32390863977684176     -0.09716042207194012     -0.5637698029570224
0                         -0.487                   0.5855827445077103       -1.3922558265353412E-6   0.42447968111650397      -0.32551588357973404     -0.10658616899333986     -0.5740838602356941
0                         -0.486                   0.6023200901176555       -2.498663746869419E-6    0.42436837381287174      -0.32714212713638574     -0.11613833723584653     -0.5827477242944376
0                         -0.485                   0.6150808297557978       -7.107963812985103E-6    0.4242470625382925       -0.328932706487046       -0.12648421192275025     -0.5898789417345587
0                         -0.484                   0.6238514373004166       -6.279522276804535E-6    0.4241155202060536       -0.33108217098695447     -0.13659846566451422     -0.5956672478489149
0                         -0.483                   0.6286268614546364       -6.899825252020669E-7    0.4239734871797703       -0.3333936854607598      -0.14746758690249434     -0.5999148080465564
0                         -0.482                   0.6293604077263901       -1.224943027507373E-6    0.4238205937457762       -0.33556104685295896     -0.15834316556990566     -0.6022969485356414
0                         -0.481                   0.6259767649038626       1.7003622942873627E-7    0.42365640858105513      -0.33795489136422235     -0.16995163690330434     -0.6031539594385802
0                         -0.48                    0.6184724126270628       7.042164789643888E-7     0.4234806987239337       -0.34066475103871674     -0.18167749919503026     -0.6025758804795023
0                         -0.479                   0.6067374722874409       6.368226654456178E-6     0.42329280075877324      -0.3435295620677153      -0.1941455911448554      -0.6003571660375647
0                         -0.478                   0.5907602031927074       -3.437442036082646E-6    0.42309242011480075      -0.34614471722437246     -0.20683306229712517     -0.5960908813006864
0                         -0.477                   0.5704555101572439       -4.378652207529306E-6    0.4228789466781923       -0.3491232084382029      -0.22004448505462712     -0.590356833700269
0                         -0.476                   0.5458023441848705       4.46249656242194E-6      0.4226519468574865       -0.35207988386577455     -0.2339805396299583      -0.58276430723489
0                         -0.475                   0.5167701254087669       4.2936129226473824E-7    0.4224108889320441       -0.3551265954471262      -0.24833599013255578     -0.5734159234945673
0                         -0.474                   0.4833447765339616       -1.126626897228975E-6    0.42215512160080904      -0.3581037784472221      -0.2631762849364752      -0.5621502513600325
0                         -0.473                   0.445557082284108        1.4245115942915244E-6    0.42188415505049975      -0.36100454992800807     -0.2787072470113933      -0.548978023114205
0                         -0.472                   0.4034572741587972       3.7141959378453105E-7    0.4215973972180532       -0.36382569895317446     -0.2948157270015824      -0.5339222356272139
0                         -0.471                   0.357135401944873        -3.2161933748034145E-7   0.42129434443895364      -0.36641487336642126     -0.3114424730978667      -0.5168739984047287
0                         -0.47                    0.30672655993237075      -9.06916341328479E-7     0.4209744055172689       -0.36862807946655735     -0.328541352576431       -0.49775211069044406
0                         -0.469                   0.25239513645216616      6.962382353571168E-7     0.42063715706553734      -0.37067013665857046     -0.34607343050735967     -0.476836909312978
0                         -0.46799999999999997     0.1943481313232776       -8.500113787943936E-7    0.4202821364217324       -0.37222517786240367     -0.36398338571009364     -0.4539062257045222
0                         -0.46699999999999997     0.13278987358762703      8.007790776528972E-8     0.4199090548334889       -0.3732361669471525      -0.3822167537224513      -0.42899583725679147
0                         -0.46599999999999997     0.06794445896477534      2.7402985406955567E-7    0.4195176421977192       -0.3737390040397105      -0.4006189062198896      -0.4022429032650127
0                         -0.46499999999999997     -1.2807331920603809E-14  -9.642122297201226E-20   0.41910777580073594      -0.37360051678035355     -0.4191074571911129      -0.37360051678034817
0                         -0.46399999999999997     NaN                      NaN                      NaN                      NaN                      NaN                      NaN
0                         -0.463                   NaN                      NaN                      NaN                      NaN                      NaN                      NaN
0                         -0.462                   NaN                      NaN                      NaN                      NaN                      NaN                      NaN
0                         -0.461                   NaN                      NaN                      NaN                      NaN                      NaN                      NaN
0                         -0.46                    NaN                      NaN                      NaN                      NaN                      NaN                      NaN
0                         -0.459                   NaN                      NaN                      NaN                      NaN                      NaN                      NaN
0                         -0.458                   NaN                      NaN                      NaN                      NaN                      NaN                      NaN
0                         -0.457                   NaN                      NaN                      NaN                      NaN                      NaN                      NaN
0                         -0.456                   NaN                      NaN                      NaN                      NaN                      NaN                      NaN
0                         -0.455                   NaN                      NaN                      NaN                      NaN                      NaN                      NaN
0                         -0.454                   NaN                      NaN                      NaN                      NaN                      NaN                      NaN
0                         -0.453                   NaN                      NaN                      NaN                      NaN                      NaN                      NaN
0                         -0.452                   NaN                      NaN                      NaN                      NaN                      NaN                      NaN
0                         -0.451                   NaN                      NaN                      NaN                      NaN                      NaN                      NaN
0                         -0.45                    NaN                      NaN                      NaN                      NaN                      NaN                      NaN
0                         -0.449                   NaN                      NaN                      NaN                      NaN                      NaN                      NaN
0                         -0.448                   NaN                      NaN                      NaN                      NaN                      NaN                      NaN
0                         -0.447                   NaN                      NaN                      NaN                      NaN                      NaN                      NaN
0                         -0.446                   NaN                      NaN                      NaN                      NaN                      NaN                      NaN
0                         -0.445                   NaN                      NaN                      NaN                      NaN                      NaN                      NaN
0                         -0.444                   NaN                      NaN                      NaN                      NaN                      NaN                      NaN
0                         -0.443                   NaN                      NaN                      NaN                      NaN                      NaN                      NaN
0                         -0.442                   NaN                      NaN                      NaN                      NaN                      NaN                      NaN
0                         -0.441                   NaN                      NaN                      NaN                      NaN                      NaN                      NaN
0                         -0.44                    NaN                      NaN                      NaN                      NaN                      NaN                      NaN
0                         -0.439                   NaN                      NaN                      NaN                      NaN                      NaN                      NaN
0                         -0.438                   NaN                      NaN                      NaN                      NaN                      NaN                      NaN
0                         -0.437                   NaN                      NaN                      NaN                      NaN                      NaN                      NaN
0                         -0.436                   NaN                      NaN                      NaN                      NaN                      NaN                      NaN
0                         -0.435                   1.2453572330317007E-14   1.008738553145933E-19    0.4201058120118553       -0.379078722824147       0.4201069760890915       -0.3790787228241522
0                         -0.434                   0.1246251733892744       5.085817534250759E-7     0.4205174668137213       -0.3792284799101866      0.40320536396158596      -0.43163554212506505
0                         -0.433                   0.2467132938447918       8.374459095943027E-7     0.42091223846755804      -0.37875934041517506     0.38634175740321386      -0.4826039851870908
0                         -0.432                   0.3658735471122268       -1.1778577348728062E-6   0.4212902012350047       -0.3777585444578923      0.36958082106900736      -0.5318974847473673
0                         -0.431                   0.4816826260282753       2.000795713787953E-6     0.42165154341723443      -0.3762911296348273      0.3530988806176394       -0.5793933523369161
0                         -0.43                    0.5937604451445189       -1.3873119877286643E-6   0.42199651692018847      -0.3744575943991419      0.3369039510622791       -0.6250224341351095
0                         -0.429                   0.7017694660279677       3.881655919202776E-6     0.4223254561441602       -0.37211206661204155     0.32108641723186393      -0.6684871764603468
0                         -0.428                   0.8054295739844267       4.169360274464585E-6     0.4226387397095532       -0.36979778331564006     0.30562274193273764      -0.7102035233892205
0                         -0.427                   0.9045323301713459       1.6076381733285636E-6    0.42293681916138554      -0.36707623289706476     0.29057185157610843      -0.74963625944837
0                         -0.426                   0.9989584567916747       2.6116331721261966E-6    0.42322013432589844      -0.3642527536380614      0.276098131556033        -0.7870320859074262
0                         -0.425                   1.0886436112237199       1.2281374448059407E-6    0.4234891376298894       -0.3614882958761694      0.26205286521815335      -0.8225170399795911
0                         -0.424                   1.173581418838841        2.6524835567738934E-6    0.4237443320281806       -0.35855544421093705     0.24843577760741803      -0.8558539186174862
0                         -0.423                   1.2538288445082717       -7.566073291710272E-6    0.42398617034016267      -0.3557301233762083      0.23524084635674025      -0.8873362134213016
0                         -0.422                   1.3294451356948336       8.36218364617741E-6      0.42421504304917157      -0.3529262988940584      0.22264676720067197      -0.9168969243643539
0                         -0.421                   1.4005711192195314       6.833169599249535E-6     0.42443149454276435      -0.3502819263998868      0.21023857668720689      -0.9447284197436647
0                         -0.42                    1.4673150183083223       8.961114255861555E-6     0.42463586790014224      -0.3477928842236424      0.19850813806870557      -0.9708674705059099
0                         -0.419                   1.5298158405683524       4.267854423990878E-6     0.4248285795040042       -0.34536394490653133     0.18702969919313966      -0.9952734353579087
0                         -0.418                   1.5882454190778352       4.691590611679872E-6     0.4250100201282751       -0.34299930466130196     0.17583030728839077      -1.0180195221922135
0                         -0.417                   1.6427153693075436       -3.1636133137110273E-7   0.4251805076283379       -0.3409098359594288      0.16514256397387503      -1.039360390570483
0                         -0.416                   1.693379130242348        9.438921163904978E-6     0.42534032927908816      -0.33885994171641515     0.1545007375264586       -1.0591223785680313
0                         -0.415                   1.740380308822786        8.269264016774873E-6     0.4254898283327914       -0.33691451215973633     0.14451803651699466      -1.0774286309945142
0                         -0.414                   1.7838329990336605       3.136154069222185E-7     0.425629293807165        -0.3352995801293102      0.13441736255076547      -1.0945511597779245
0                         -0.413                   1.8238480582881405       2.0517896619761422E-5    0.42575882318490516      -0.3337476737279005      0.12478550612157538      -1.1102670766927334
0                         -0.41200000000000003     1.860566812875024        8.717906920506181E-7     0.42587890014023         -0.3322410148677959      0.11538140758356268      -1.1246171627724242
0                         -0.41100000000000003     1.8940543546208954       9.240090728821635E-6     0.4259894909971653       -0.33106600724059465     0.10591702017405775      -1.1379132576865145
0                         -0.41000000000000003     1.9244268305211796       1.0274556231776608E-5    0.42609089940640954      -0.3299915642161873      0.09689979831421994      -1.1499723232747827
0                         -0.40900000000000003     1.9517550879076448       4.403944831076338E-6     0.4261832971717986       -0.32885894114536374     0.08795577708969754      -1.1606643597816775
0                         -0.40800000000000003     1.9760952424673013       5.22991486844545E-6      0.4262667371882861       -0.32810557548127334     0.07906390851417537      -1.170449246861105
0                         -0.40700000000000003     1.9975505180046893       6.347942062210306E-6     0.42634144900352877      -0.32741629838538444     0.07035972197113272      -1.1790548806892531
0                         -0.406                   2.0161303741649226       9.083991943647809E-6     0.4264074493814067       -0.3266074162497218      0.06177588086650172      -1.1863004267177675
0                         -0.405                   2.0318901250354364       3.7415664034589556E-6    0.42646488141028877      -0.32624367333732235     0.053187108921900594     -1.1927734545492965
0                         -0.404                   2.0448907861626364       2.650288220933239E-6     0.426513828868595        -0.32581374269624347     0.0447078076909312       -1.197987941520581
0                         -0.403                   2.0551342683305975       6.1567311384701405E-6    0.42655429702567055      -0.32538381205521066     0.03622850645997173      -1.2020101651763344
0                         -0.402                   2.062646612799757        7.655949063593275E-6     0.4265863581481593       -0.32520462865560823     0.027902918468343293     -1.2051015353564931
0                         -0.401                   2.067449147217266        5.13135283063216E-6      0.4266100686167809       -0.3252238912765313      0.01951801877489392      -1.2072185138325944
0                         -0.4                     2.0695364714078974       4.316104208800052E-6     0.4266253970478048       -0.32526118981659496     0.01116022295804381      -1.2081780086359022
0                         -0.399                   2.068910961790465        5.94444898785914E-6      0.42663236411045796      -0.32545032070907143     0.0027739023483257476    -1.208114695471779
0                         -0.398                   2.065556461870277        1.2565636133570147E-5    0.4266309448525014       -0.3256394516015027      -0.005612418261460664    -1.2068697565754087
0                         -0.397                   2.0594783559689365       1.3296451429089186E-5    0.4266211403140119       -0.32604730096947393     -0.014050002342442436    -1.2046643056449682
0                         -0.396                   2.050610614043012        8.864960764386387E-6     0.4266028260132851       -0.32670539344053623     -0.022578599111045556    -1.2015016764441229
0                         -0.395                   2.038941618364943        4.354167592878421E-6     0.42657598311578976      -0.3273634859116425      -0.031107195879662052    -1.1971270112813674
0                         -0.394                   2.0244420513643053       -3.0666396108565992E-6   0.426540501815111        -0.328061530940327       -0.03987538889886985     -1.1915680594248705
0                         -0.393                   2.0070453676152833       1.5308179553487265E-5    0.4264963926721801       -0.32888483273512165     -0.0485426029300902      -1.1848824419524495
0                         -0.392                   1.986695154005104        1.3020500509813578E-5    0.42644340588959745      -0.32990332167370284     -0.057430962234996136    -1.1771163696119977
0                         -0.391                   1.9633434884451801       -6.487810015941555E-6    0.42638143227785646      -0.3310138076918996      -0.06652349542606366     -1.1681470163485588
0                         -0.39                    1.9368772640414065       1.7988387895112665E-5    0.4263104068930672       -0.33225102644086746     -0.07564900828951707     -1.1579619609762903
0                         -0.389                   1.9072516625253078       8.863053235461398E-6     0.4262300710800173       -0.3335861456497496      -0.08502261780992139     -1.1465141573353927
0                         -0.388                   1.8743515326879705       -8.587694621117083E-6    0.4261402428753931       -0.33517010826091115     -0.09460730361816216     -1.1339067256344282
0                         -0.387                   1.8380603212389777       1.8391960451323918E-5    0.4260407567549276       -0.3368103200095474      -0.10445088206349676     -1.1198989302314069
0                         -0.386                   1.7983135133131085       -9.535851741580114E-6    0.42593133459041077      -0.3386055634446754      -0.11446678811613581     -1.104563638182098
0                         -0.385                   1.754940851154152        2.9721284439721E-6       0.42581174338268196      -0.34051073049877195     -0.12471562734140151     -1.0877851538622092
0                         -0.384                   1.7078345472361447       -2.271578371570633E-6    0.42568164986097023      -0.3427008804083139      -0.1353610081812459      -1.069694708165359
0                         -0.383                   1.656848985197564        -5.331293270492888E-6    0.4255407707272976       -0.34480801794128846     -0.14639725916392066     -1.0498648120810008
0                         -0.382                   1.6018676600222075       5.99576386109021E-6      0.4253888138690405       -0.347106399791721       -0.15766645081216735     -1.028522983663743
0                         -0.381                   1.542704785868597        1.3815348988865197E-5    0.4252253062914492       -0.3498352921349688      -0.16934870437006644     -1.0058324072232274
0                         -0.38                    1.4792752608195336       -3.017675597278228E-6    0.42504995229088444      -0.3526167920409463      -0.181537466939833       -0.9813826710773748
0                         -0.379                   1.4113843743523735       1.7799700589665915E-5    0.42486227219804773      -0.3552978868997643      -0.19394292114678582     -0.9549418591319336
0                         -0.378                   1.33895138857464         -4.4502679540748095E-7   0.4246618612861017       -0.35824337963693187     -0.20700739301219667     -0.9268449684806489
0                         -0.377                   1.2618186038479513       -5.571492847847145E-7    0.4244481590122631       -0.3612249182471683      -0.22040073307048796     -0.8968015016578553
0                         -0.376                   1.1799428358152626       -4.534723405234506E-6    0.42422070373611903      -0.3641483139819379      -0.23450981921752564     -0.8647044941598806
0                         -0.375                   1.0932664170933388       5.8679178213622535E-6    0.42397897314496347      -0.36734197886852743     -0.24905387056328074     -0.8308639517616345
0                         -0.374                   1.0018025843106615       1.8961490262409117E-6    0.4237224443390456       -0.3704799260499599      -0.26417692246868446     -0.7949661658192462
0                         -0.373                   0.9056150921357188       -1.758628978197184E-6    0.4234505158000899       -0.37344444978597946     -0.2797662717897394      -0.7569276276671955
0                         -0.372                   0.8048571559165283       1.63833343647599E-6      0.423162670348565        -0.3762211524407766      -0.29600859713720035     -0.7168066557875661
0                         -0.371                   0.6997361452218722       2.519139222133485E-6     0.42285838994500813      -0.3789871843284699      -0.3127357961817132      -0.6748764840833172
0                         -0.37                    0.5905884820011679       -3.1427681307877754E-6   0.42253711175133213      -0.38129551660367933     -0.32990942770424914     -0.6308410680220564
0                         -0.369                   0.47779242530706756      7.833146575620906E-7     0.42219845043221954      -0.38332037389450063     -0.34749538601593455     -0.5850435954873965
0                         -0.368                   0.36182966069848377      -1.074458672803594E-6    0.42184194788995283      -0.38492229231790404     -0.36550408503850307     -0.5375572211913131
0                         -0.367                   0.2431898186721048       -3.6520265619863925E-7   0.42146733334975484      -0.38593960147353584     -0.3837617478808675      -0.4884361658470783
0                         -0.366                   0.1224185836988857       7.202505429478018E-7     0.4210743666761937       -0.3864464524297006      -0.402170379810922       -0.43799378003010553
0                         -0.365                   -6.646587630659247E-15   -1.6410219313954774E-19  0.4206629381485317       -0.3863032540208121      -0.42066241113973474     -0.38630325402080934
0                         -0.364                   NaN                      NaN                      NaN                      NaN                      NaN                      NaN
0                         -0.363                   NaN                      NaN                      NaN                      NaN                      NaN                      NaN
0                         -0.362                   NaN                      NaN                      NaN                      NaN                      NaN                      NaN
0                         -0.361                   NaN                      NaN                      NaN                      NaN                      NaN                      NaN
0                         -0.36                    NaN                      NaN                      NaN                      NaN                      NaN                      NaN
0                         -0.359                   NaN                      NaN                      NaN                      NaN                      NaN                      NaN
0                         -0.358                   NaN                      NaN                      NaN                      NaN                      NaN                      NaN
0                         -0.357                   NaN                      NaN                      NaN                      NaN                      NaN                      NaN
0                         -0.356                   NaN                      NaN                      NaN                      NaN                      NaN                      NaN
0                         -0.355                   NaN                      NaN                      NaN                      NaN                      NaN                      NaN
0                         -0.354                   NaN                      NaN                      NaN                      NaN                      NaN                      NaN
0                         -0.353                   NaN                      NaN                      NaN                      NaN                      NaN                      NaN
0                         -0.352                   NaN                      NaN                      NaN                      NaN                      NaN                      NaN
0                         -0.351                   NaN                      NaN                      NaN                      NaN                      NaN                      NaN
0                         -0.35                    NaN                      NaN                      NaN                      NaN                      NaN                      NaN
0                         -0.349                   NaN                      NaN                      NaN                      NaN                      NaN                      NaN
0                         -0.348                   NaN                      NaN                      NaN                      NaN                      NaN                      NaN
0                         -0.347                   NaN                      NaN                      NaN                      NaN                      NaN                      NaN