% Model:              C1Eq.mph
% Version:            COMSOL 5.6.0.280
% Date:               Jun 10 2021, 09:42
% Dimension:          2
% Nodes:              10201
% Expressions:        9
% Description:        Velocity field, x component, Velocity field, y component, Dependent variable u3, Gradient of u3, x component, Dependent variable u5, Gradient of u5, x component, , , Gradient of u3, y component
% Length unit:        m
% x                       y                        u (m/s)                  v (m/s)                  u3 (1)                   u3x (1/m)                u5 (1)                   u5x (1/m)                -u*u3+u3x                -u*u5+u5x                u3y (1/m)
-0.5                      -0.5                     3.625191354000583E-16    -2.008578256761324E-23   0.6197257945574565       -0.3168004021163489      0.6221324175402357       -0.31438687266413506     -0.31680040211634913     -0.3143868726641353      0.0061972582078590535
-0.49                     -0.5                     3.3341934672022345E-17   -4.709098736171864E-24   0.6165432297035999       -0.31971660708928484     0.6189740937796758       -0.3172819178935023      -0.31971660708928484     -0.3172819178935023      0.0061654325605204185
-0.48                     -0.5                     3.1583498403921276E-16   -4.958359459303481E-23   0.6133313814619288       -0.32265709853681357     0.6157866982034523       -0.3202012570225752      -0.32265709853681374     -0.3202012570225754      0.006133314081633885
-0.47                     -0.5                     3.0106597392371266E-16   -7.060738468839587E-23   0.6100900063875891       -0.32562199347967735     0.6125699872239441       -0.3231450209952474      -0.3256219934796775      -0.32314502099524756     0.006100900333453663
-0.46                     -0.5                     1.2760890771838524E-16   -3.3003469493027533E-23  0.606818859843554        -0.328611413516933       0.6093237159058345       -0.32611334857815777     -0.32861141351693307     -0.3261133485781578      0.006068188869121664
-0.45                     -0.5                     3.5463262283018757E-16   -1.2218300336661053E-22  0.6035176959292463       -0.33162548990864826     0.6060476378826068       -0.3291063874274174      -0.3316254899086485      -0.3291063874274176      0.006035177231861281
-0.44                     -0.5                     -2.4204408901924783E-16  9.603339569116453E-23    0.6001862674011289       -0.3346643601603596      0.6027415052620153       -0.3321242952352636      -0.33466436016035944     -0.33212429523526343     0.006001862947948274
-0.43                     -0.5                     -5.920887866643098E-17   2.921546746463412E-23    0.5968243255810987       -0.337728173886478       0.5994050685195712       -0.335167240960307       -0.33772817388647797     -0.3351672409603069      0.005968243530760312
-0.42                     -0.5                     1.4119041499358842E-16   -8.317790417335588E-23   0.5934316202553809       -0.34081708874335964     0.5960380763797352       -0.3382354060713025      -0.34081708874335975     -0.3382354060713026      0.00593431647859068
-0.41000000000000003      -0.5                     2.99145917855525E-18     -2.040134836010039E-24   0.5900078995610644       -0.34393127718755273     0.5926402756840462       -0.34132898592083705     -0.34393127718755273     -0.34132898592083705     0.005900079275675734
-0.4                      -0.5                     1.0560399641380382E-16   -8.538521184435124E-23   0.5865529098609931       -0.34707092170796805     0.5892114112451813       -0.34444819117149356     -0.3470709217079681      -0.3444481911714936      0.005865529384327038
-0.39                     -0.5                     -6.400716158105382E-17   6.027732930958734E-23    0.5830663956061447       -0.35023622254216724     0.5857512256864371       -0.3475932492848813      -0.3502362225421672      -0.3475932492848812      0.005830664249467623
-0.38                     -0.5                     1.340110606389912E-16    -1.446955289318341E-22   0.5795480991850749       -0.3534273919609883      0.5822594592663443       -0.35076440600315945     -0.3534273919609884      -0.3507644060031595      0.00579548129200809
-0.37                     -0.5                     -3.115153772275437E-16   3.762798861250825E-22    0.5759977607618285       -0.35664466305589454     0.5787358496879573       -0.35396192696743056     -0.3566446630558944      -0.3539619269674304      0.005759977915490292
-0.36                     -0.5                     -5.609631255935089E-16   7.9896301207408835E-22   0.5724151180982768       -0.35988828310966536     0.5751801318912912       -0.3571860994115096      -0.35988828310966503     -0.35718609941150925     0.005724151498471584
-0.35                     -0.5                     1.1321206727697987E-16   -1.7783330515268938E-22  0.5687999063664579       -0.3631585233284061      0.5715920378295949       -0.3604372337279521      -0.36315852332840615     -0.36043723372795217     0.0056879993909239954
-0.33999999999999997      -0.5                     -1.7431992375022752E-16  3.3131011803753383E-22   0.5651518579448123       -0.3664556710840701      0.567971296229046        -0.36371566523916743     -0.36645567108407        -0.3637156652391673      0.005651518917326527
-0.32999999999999996      -0.5                     1.3240999576644623E-16   -2.6813741156104723E-22  0.5614707022058204       -0.36978004081276994     0.5643176323306814       -0.36702175593435477     -0.36978004081277        -0.3670217559343548      0.0056147073714745786
-0.32                     -0.5                     -3.3811579039028344E-16  8.266759689322377E-22    0.5577561652862749       -0.3731319649048843      0.560630767615318        -0.3703558961417794      -0.37313196490488415     -0.3703558961417792      0.005577562015262572
-0.31                     -0.5                     -2.1879804503994728E-16  5.707392575695528E-22    0.554007969854064        -0.37651180547780505     0.5569104195118261       -0.37371850622083985     -0.37651180547780494     -0.37371850622083974     0.005540080075412271
-0.3                      -0.5                     3.6283206866808655E-16   -1.120084267481132E-21   0.5502258348559214       -0.3799199441880803      0.55315630108766         -0.37711003838853385     -0.3799199441880805      -0.3771100383885341      0.005502258743809197
-0.29000000000000004      -0.5                     2.875484784407918E-16    -9.458837352143831E-22   0.5464094752660759       -0.3833567946538279      0.5493681207220021       -0.38053097834034        -0.38335679465382805     -0.38053097834034016     0.005464095169889805
-0.28                     -0.5                     -3.200552132050555E-17   1.2663512299717198E-22   0.5425586018175278       -0.38682279079921766     0.5455455817633218       -0.38398184675988734     -0.38682279079921766     -0.38398184675988734     0.005425586460862631
-0.27                     -0.5                     7.491334864814099E-16    -3.0396056111882216E-21  0.538672920743989        -0.3903183993653138      0.541688382172744        -0.387463200646658       -0.3903183993653142      -0.3874632006466584      0.005386729680515272
-0.26                     -0.5                     3.721655564600394E-18    -1.8792715802986788E-23  0.5347521335074086       -0.39384410701524425     0.537796214154566        -0.3909756345751361      -0.39384410701524425     -0.3909756345751361      0.005347521842972478
-0.25                     -0.5                     3.217237053815714E-16    -1.6636938366853388E-21  0.5307959365465443       -0.3974004325039893      0.5338687637745446       -0.39451978182752306     -0.3974004325039895      -0.39451978182752323     0.0053079599098471274
-0.24                     -0.5                     2.3786894107696967E-16   -1.5153826659072736E-21  0.5268040210169768       -0.40098791239756        0.529905710569165        -0.39809631506996856     -0.4009879123975601      -0.3980963150699687      0.005268040796991422
-0.22999999999999998      -0.5                     3.4437683306120385E-16   -2.2699582356097746E-21  0.5227760725695648       -0.40460711175575886     0.5259067271489416       -0.40170594690591416     -0.40460711175575903     -0.4017059469059143      0.005227761362941422
-0.21999999999999997      -0.5                     1.2568904301867898E-16   -1.0040268517289578E-21  0.5187117711314742       -0.408258608405733       0.521871478798791        -0.405349429703293       -0.4082586084057331      -0.4053494297032931      0.00518711840826149
-0.21000000000000002      -0.5                     2.1027664139662306E-16   -1.7128086502781363E-21  0.5146107907541201       -0.4119429999510251      0.5177996230856805       -0.40902755452280387     -0.41194299995102523     -0.409027554522804       0.005146108673914145
-0.2                      -0.5                     -2.9381119706240546E-16  2.9818151382887106E-21   0.5104727994882448       -0.41566088657119327     0.5136908094768498       -0.4127411499602473      -0.4156608865711931      -0.41274114996024713     0.0051047288411078485
-0.19                     -0.5                     1.0204995858908047E-16   -1.0375382276038976E-21  0.5062974593583093       -0.4194128728328566      0.5095446789761133       -0.416491079544083       -0.41941287283285666     -0.41649107954408304     0.005062975533802512
-0.18                     -0.5                     5.363099108234195E-16    -6.991785662867527E-21   0.5020844264087067       -0.42319954690473155     0.5053608637931355       -0.4202782378562342      -0.4231995469047318      -0.42027823785623447     0.005020845318363014
-0.16999999999999998      -0.5                     -4.25974988190197E-16    5.611723561621717E-21    0.4978333509085543       -0.42702147389485345     0.5011389870569255       -0.4241035454244454      -0.42702147389485323     -0.42410354542444517     0.004978334702233135
-0.15999999999999998      -0.5                     -9.20270747989602E-16    1.5937395972853877E-20   0.49354387770065355      -0.43087916905183027     0.4968786625914925       -0.4279679411794485      -0.4308791690518298      -0.42796794117944803     0.004935440140133362
-0.14999999999999997      -0.5                     1.6338638867592898E-16   -2.811447954495279E-21   0.4892156468130089       -0.43477307590113884     0.492579494783426        -0.43187237180924365     -0.4347730759011389      -0.4318723718092437      0.004892158044707613
-0.14                     -0.5                     -4.506540602424758E-17   1.0551337048986888E-21   0.4848482943498986       -0.43870352831389736     0.4882410785622456       -0.4358177795826719      -0.43870352831389736     -0.4358177795826719      0.004848484786978646
-0.13                     -0.5                     2.7341238644614E-16      -6.2788376394970456E-21  0.48044145381219544      -0.4426707037731912      0.48386299953458173      -0.439805082944521       -0.4426707037731913      -0.4398050829445211      0.00480441672146185
-0.12                     -0.5                     2.2016255045281862E-17   -7.211239606281123E-22   0.4759947579826317       -0.44667455584321614     0.4794448343419533       -0.44383515210879787     -0.44667455584321614     -0.44383515210879787     0.004759950198492797
-0.10999999999999999      -0.5                     1.3692497322564675E-16   -4.3430566845723806E-21  0.4715078415775803       -0.45071472599235174     0.4749861512908204       -0.44790877768309967     -0.4507147259923518      -0.4479087776830997      0.004715081600409646
-0.09999999999999998      -0.5                     1.2831154381460017E-16   -6.209438107805126E-21   0.4669803449998048       -0.4547904103800834      0.4704865113569597       -0.45202662671107924     -0.45479041038008344     -0.4520266267110793      0.004669807453446285
-0.08999999999999997      -0.5                     -8.886292640954867E-16   4.332761701929207E-20    0.4624119196163034       -0.45890018147147577     0.46594546969920236      -0.4561891845775936      -0.4589001814714754      -0.4561891845775932      0.004624124282000409
-0.08000000000000002      -0.5                     -6.134000626650233E-16   4.8882436881102685E-20   0.45780223537885256      -0.46304169442652        0.46136257783585294      -0.4603966792604783      -0.4630416944265197      -0.460396679260478       0.004578029397649951
-0.07                     -0.5                     -9.112592587783933E-16   7.639801981892916E-20    0.4531509917997894       -0.46721129206917283     0.45673738671164793      -0.46464897893495777     -0.46721129206917245     -0.4646489789349574      0.004531519116695987
-0.06                     -0.5                     6.421703515364798E-17    -9.267343802395899E-21   0.4484579345170418       -0.47140326138613736     0.4520694508664584       -0.46894547517288326     -0.4714032613861374      -0.4689454751728833      0.004484594325833942
-0.04999999999999999      -0.5                     3.429627759734814E-16    -5.812564699766743E-20   0.44372288058092246      -0.47560877950655306     0.44735833386725415      -0.4732849519876355      -0.4756087795065532      -0.47328495198763565     0.0044372475864184295
-0.03999999999999998      -0.5                     9.278731331717167E-16    -2.816481972136348E-19   0.4389457599679901       -0.4798135927403507      0.44260361463022585      -0.4776655781634228      -0.47981359274035107     -0.4776655781634232      0.004389499947571823
-0.02999999999999997      -0.5                     1.4126052048701402E-15   -6.417345518955399E-19   0.4341266867323201       -0.48399415921393013     0.43780489161535613      -0.48208549025206815     -0.48399415921393074     -0.48208549025206876     0.004341311834448175
-0.020000000000000018     -0.5                     2.357483005762386E-15    -1.870822469350424E-18   0.42926609644284097      -0.48810705109009805     0.4329617698474699       -0.48654647131871975     -0.48810705109009905     -0.48654647131872075     0.004292884655986356
-0.010000000000000009     -0.5                     -1.8991531650455547E-15  3.4192409270786785E-18   0.4243650531340461       -0.49206195728424373     0.4280737426579287       -0.4910779552981741      -0.4920619572842429      -0.4910779552981733      0.004243884011220759
0                         -0.5                     NaN                      NaN                      NaN                      NaN                      NaN                      NaN                      NaN                      NaN                      NaN
0.010000000000000009      -0.5                     NaN                      NaN                      NaN                      NaN                      NaN                      NaN                      NaN                      NaN                      NaN
0.020000000000000018      -0.5                     NaN                      NaN                      NaN                      NaN                      NaN                      NaN                      NaN                      NaN                      NaN
0.030000000000000027      -0.5                     NaN                      NaN                      NaN                      NaN                      NaN                      NaN                      NaN                      NaN                      NaN
0.040000000000000036      -0.5                     NaN                      NaN                      NaN                      NaN                      NaN                      NaN                      NaN                      NaN                      NaN
0.050000000000000044      -0.5                     NaN                      NaN                      NaN                      NaN                      NaN                      NaN                      NaN                      NaN                      NaN
0.06000000000000005       -0.5                     NaN                      NaN                      NaN                      NaN                      NaN                      NaN                      NaN                      NaN                      NaN
0.07000000000000006       -0.5                     NaN                      NaN                      NaN                      NaN                      NaN                      NaN                      NaN                      NaN                      NaN
0.07999999999999996       -0.5                     NaN                      NaN                      NaN                      NaN                      NaN                      NaN                      NaN                      NaN                      NaN
0.08999999999999997       -0.5                     NaN                      NaN                      NaN                      NaN                      NaN                      NaN                      NaN                      NaN                      NaN
0.09999999999999998       -0.5                     NaN                      NaN                      NaN                      NaN                      NaN                      NaN                      NaN                      NaN                      NaN
0.10999999999999999       -0.5                     NaN                      NaN                      NaN                      NaN                      NaN                      NaN                      NaN                      NaN                      NaN
0.12                      -0.5                     NaN                      NaN                      NaN                      NaN                      NaN                      NaN                      NaN                      NaN                      NaN
0.13                      -0.5                     NaN                      NaN                      NaN                      NaN                      NaN                      NaN                      NaN                      NaN                      NaN
0.14                      -0.5                     NaN                      NaN                      NaN                      NaN                      NaN                      NaN                      NaN                      NaN                      NaN
0.15000000000000002       -0.5                     NaN                      NaN                      NaN                      NaN                      NaN                      NaN                      NaN                      NaN                      NaN
0.16000000000000003       -0.5                     NaN                      NaN                      NaN                      NaN                      NaN                      NaN                      NaN                      NaN                      NaN
0.17000000000000004       -0.5                     NaN                      NaN                      NaN                      NaN                      NaN                      NaN                      NaN                      NaN                      NaN
0.18000000000000005       -0.5                     NaN                      NaN                      NaN                      NaN                      NaN                      NaN                      NaN                      NaN                      NaN
0.19000000000000006       -0.5                     NaN                      NaN                      NaN                      NaN                      NaN                      NaN                      NaN                      NaN                      NaN
0.20000000000000007       -0.5                     NaN                      NaN                      NaN                      NaN                      NaN                      NaN                      NaN                      NaN                      NaN
0.20999999999999996       -0.5                     NaN                      NaN                      NaN                      NaN                      NaN                      NaN                      NaN                      NaN                      NaN
0.21999999999999997       -0.5                     NaN                      NaN                      NaN                      NaN                      NaN                      NaN                      NaN                      NaN                      NaN
0.22999999999999998       -0.5                     NaN                      NaN                      NaN                      NaN                      NaN                      NaN                      NaN                      NaN                      NaN
0.24                      -0.5                     NaN                      NaN                      NaN                      NaN                      NaN                      NaN                      NaN                      NaN                      NaN
0.25                      -0.5                     NaN                      NaN                      NaN                      NaN                      NaN                      NaN                      NaN                      NaN                      NaN
0.26                      -0.5                     NaN                      NaN                      NaN                      NaN                      NaN                      NaN                      NaN                      NaN                      NaN
0.27                      -0.5                     NaN                      NaN                      NaN                      NaN                      NaN                      NaN                      NaN                      NaN                      NaN
0.28                      -0.5                     NaN                      NaN                      NaN                      NaN                      NaN                      NaN                      NaN                      NaN                      NaN
0.29000000000000004       -0.5                     NaN                      NaN                      NaN                      NaN                      NaN                      NaN                      NaN                      NaN                      NaN
0.30000000000000004       -0.5                     NaN                      NaN                      NaN                      NaN                      NaN                      NaN                      NaN                      NaN                      NaN
0.31000000000000005       -0.5                     NaN                      NaN                      NaN                      NaN                      NaN                      NaN                      NaN                      NaN                      NaN
0.32000000000000006       -0.5                     NaN                      NaN                      NaN                      NaN                      NaN                      NaN                      NaN                      NaN                      NaN
0.33000000000000007       -0.5                     NaN                      NaN                      NaN                      NaN                      NaN                      NaN                      NaN                      NaN                      NaN
0.33999999999999997       -0.5                     NaN                      NaN                      NaN                      NaN                      NaN                      NaN                      NaN                      NaN                      NaN
0.35                      -0.5                     NaN                      NaN                      NaN                      NaN                      NaN                      NaN                      NaN                      NaN                      NaN
0.36                      -0.5                     NaN                      NaN                      NaN                      NaN                      NaN                      NaN                      NaN                      NaN                      NaN
0.37                      -0.5                     NaN                      NaN                      NaN                      NaN                      NaN                      NaN                      NaN                      NaN                      NaN
0.38                      -0.5                     NaN                      NaN                      NaN                      NaN                      NaN                      NaN                      NaN                      NaN                      NaN
0.39                      -0.5                     NaN                      NaN                      NaN                      NaN                      NaN                      NaN                      NaN                      NaN                      NaN
0.4                       -0.5                     NaN                      NaN                      NaN                      NaN                      NaN                      NaN                      NaN                      NaN                      NaN
0.41000000000000003       -0.5                     NaN                      NaN                      NaN                      NaN                      NaN                      NaN                      NaN                      NaN                      NaN
0.42000000000000004       -0.5                     NaN                      NaN                      NaN                      NaN                      NaN                      NaN                      NaN                      NaN                      NaN
0.43000000000000005       -0.5                     NaN                      NaN                      NaN                      NaN                      NaN                      NaN                      NaN                      NaN                      NaN
0.44000000000000006       -0.5                     NaN                      NaN                      NaN                      NaN                      NaN                      NaN                      NaN                      NaN                      NaN
0.45000000000000007       -0.5                     NaN                      NaN                      NaN                      NaN                      NaN                      NaN                      NaN                      NaN                      NaN
0.45999999999999996       -0.5                     NaN                      NaN                      NaN                      NaN                      NaN                      NaN                      NaN                      NaN                      NaN
0.47                      -0.5                     NaN                      NaN                      NaN                      NaN                      NaN                      NaN                      NaN                      NaN                      NaN
0.48                      -0.5                     NaN                      NaN                      NaN                      NaN                      NaN                      NaN                      NaN                      NaN                      NaN
0.49                      -0.5                     NaN                      NaN                      NaN                      NaN                      NaN                      NaN                      NaN                      NaN                      NaN
0.5                       -0.5                     NaN                      NaN                      NaN                      NaN                      NaN                      NaN                      NaN                      NaN                      NaN
-0.5                      -0.49                    0.061710295415904746     -1.1593158566839743E-4   0.6198019607063702       -0.31682041678564576     0.6222087210449047       -0.31440664607109386     -0.35506857888019283     -0.3528033300571272      0.009003425861396514
-0.49                     -0.49                    0.06195210104068906      -1.2662666826534767E-4   0.6166191944460345       -0.3197368741235587      0.6190501983323551       -0.31730193497315806     -0.35793772876150776     -0.35565339540950275     0.008994542486595564
-0.48                     -0.49                    0.06221611492454419      -1.3822823895248313E-4   0.613407142264683        -0.322677619685543       0.6158626013654337       -0.3202215181151919      -0.3608414289442187      -0.35853809649947244     0.008985426210909066
-0.47                     -0.49                    0.06250406422876463      -1.508233596593074E-4    0.6101655607111761       -0.32564276849660334     0.6126456865546325       -0.3231655261289011      -0.3637805958934749      -0.36145837147078747     0.008976081466818176
-0.46                     -0.49                    0.0628181278487774       -1.644855265936129E-4    0.6068942051421033       -0.32863244368405675     0.6093992089665801       -0.32613409733436055     -0.36675640145335553     -0.364415414754167       0.008966503152761674
-0.45                     -0.49                    0.06316038295115033      -1.7929759158962725E-4   0.6035928296573826       -0.33164677411771504     0.6061229222406261       -0.329127379049198       -0.36976992838544376     -0.36741033493338626     0.008956696824300505
-0.44                     -0.49                    0.0635333187493413       -1.9537900708546313E-4   0.60026118701388         -0.33468589912013297     0.6028165784945727       -0.3321455284663119      -0.3728224844475438      -0.3704444662951949      0.008946658330712846
-0.43                     -0.49                    0.06393943758695793      -2.128152163609241E-4    0.5968990285410772       -0.33774996561319154     0.5994799282182587       -0.33518871418460866     -0.37591535379430957     -0.37351912363955403     0.008936394240046134
-0.42                     -0.49                    0.06438161654759803      -2.3174258896949967E-4   0.5935061040326162       -0.3408391334849929      0.5961127201550116       -0.33825711713722634     -0.37905001589347964     -0.3766358177053919      0.00892590319481019