% Model:              C1EqPe1Eps01.mph
% Version:            COMSOL 5.6.0.280
% Date:               Sep 21 2021, 16:45
% Dimension:          2
% Nodes:              1001
% Expressions:        8
% Description:        Velocity field, x component, Velocity field, y component, Dependent variable u4, Gradient of u4, x component, Gradient of u4, y component, Dependent variable u6, Gradient of u6, x component, Gradient of u6, y component
% Length unit:        m
% x                       y                        u2 (m/s)                 v2 (m/s)                 u4 (1)                   u4x (1/m)                u4y (1/m)                u6 (1)                   u6x (1/m)                u6y (1/m)
0                         -0.5                     -6.876281542782705E-15   1.1736226321675842E-18   0.9051456567610298       -0.01782638484757874     0.009053958689949551     0.9053023599040647       -0.017823820911197306    0.009054482008979577
0                         -0.499                   0.05844753709306343      -1.8298914918924602E-7   0.9051547135639039       -0.01782847029031684     0.009057108742047548     0.9053114169966217       -0.017824394585549786    0.00905782969549433
0                         -0.498                   0.11186306092712853      -4.400292244749992E-7    0.9051637709785141       -0.0178282141358794      0.00905772047841461      0.905320475563456        -0.017823697061671268    0.009059303973125819
0                         -0.497                   0.16024657150220725      -7.711202258572953E-7    0.9051728290048605       -0.017828163889435304    0.009058332214662984     0.9053295356045676       -0.01782362988197101     0.0090607782506319
0                         -0.496                   0.20359806881830367      -1.1762621533361892E-6   0.9051818876429434       -0.017828329321825424    0.009058943950971716     0.9053385971199571       -0.017824222958843613    0.009062252528175423
0                         -0.495                   0.24191755287540884      -1.6554550069116126E-6   0.9051909468927625       -0.017828720834139392    0.009059555687287755     0.9053476601096241       -0.017825508130595694    0.009063726805768123
0                         -0.494                   0.2752050236735246       -2.208698786583573E-6    0.9052000067543179       -0.017829349505163527    0.0090601674235339       0.9053567245735686       -0.017827519312776575    0.009065201083319045
0                         -0.493                   0.3039920971985752       -1.993500837900994E-6    0.9052090673258069       -0.01783064419495463     0.009060479359297723     0.9053657898612624       -0.017828266202891862    0.009064040136437749
0                         -0.492                   0.3312479891201838       -4.5019378101336876E-7   0.9052181263278556       -0.01783083778447036     0.009057524738036398     0.9053748525876184       -0.0178283517426502      0.009061412575645066
0                         -0.491                   0.3571282673083265       5.948244378076212E-7     0.9052271823752832       -0.017831128634286902    0.009054570116849165     0.9053839126864138       -0.017828677530510324    0.00905878501488958
0                         -0.49                    0.38163293176300694      1.141553818562161E-6     0.9052362354680894       -0.017831518694864733    0.00905161549570955      0.9053929701576483       -0.017829248386244455    0.00905615745419292
0                         -0.489                   0.40476198248422435      1.1899943612501983E-6    0.9052452856062746       -0.01783200997038111     0.009048660874461788     0.9054020250013222       -0.017830069259233028    0.009053529893388255
0                         -0.488                   0.4265154194719782       7.401460658717337E-7     0.9052543327898384       -0.017832604518948497    0.00904570625323915      0.9054110772174351       -0.017831145233348954    0.009050902332608534
0                         -0.487                   0.44689324272626846      -2.0799106757321354E-7   0.905263377018781        -0.01783330445439552     0.009042751632072755     0.9054201268059874       -0.017832481530982672    0.009048274771913289
0                         -0.486                   0.46574896400058174      -2.700401389663631E-7    0.9052724181685294       -0.017834219601509323    0.009038815257279387     0.9054291730576717       -0.017833139955054936    0.009043732656249213
0                         -0.485                   0.4836403221869404       1.805546852121709E-7     0.9052814543141352       -0.017834693624804804    0.009033475954205792     0.9054382142006565       -0.017833662696242564    0.009038553313217946
0                         -0.484                   0.500737460362355        5.153538115984624E-7     0.9052904851204376       -0.017835217996381738    0.009028136651106704     0.905447250164298        -0.017834303923544285    0.00903337397016888
0                         -0.483                   0.5170403785268294       7.343572401925941E-7     0.9052995105874372       -0.017835793782065804    0.009022797348007117     0.9054562809485966       -0.01783506614477348     0.009028194627108351
0                         -0.482                   0.5325490766803626       8.375649709945397E-7     0.9053085307151337       -0.017836422077369185    0.009017458044947895     0.9054653065535523       -0.017835951938832112    0.009023015284045864
0                         -0.481                   0.5472635548229546       8.249770040042906E-7     0.905317545503527        -0.01783710400961474     0.009012118741830825     0.9054743269791647       -0.017836963957893772    0.00901783594095442
0                         -0.48                    0.5611838129546047       6.965933392218474E-7     0.9053265549526175       -0.017837840738586203    0.009006779438767735     0.9054833422254343       -0.017838104930896125    0.009012656597944962
0                         -0.479                   0.5743514959866579       8.239022648509505E-7     0.9053355585625535       -0.017838603408789344    0.009000053809657054     0.9054923513383247       -0.0178387304896474      0.00900559546357868
0                         -0.478                   0.5870415688968356       9.203524799905359E-7     0.9053445550602367       -0.017839211519474367    0.00899294155670716      0.9055013534163613       -0.017839434019186293    0.008998560609770848
0                         -0.477                   0.5992540316851385       9.859439846386993E-7     0.905353544445667        -0.017839846075709362    0.008985829303752472     0.9055103484595443       -0.017840202623814538    0.008991525755923442
0                         -0.476                   0.6109888843515643       1.0206767787954316E-6    0.9053625267188441       -0.017840506847892068    0.008978717050771603     0.9055193364678732       -0.017841035736169675    0.008984490902087076
0                         -0.475                   0.6222461268961157       1.0245508624607427E-6    0.9053715018797683       -0.017841193607315165    0.00897160479783093      0.9055283174413483       -0.017841932794574536    0.008977456048249363
0                         -0.474                   0.6330257593187915       9.975662356346293E-7     0.9053804699284398       -0.01784190612783776     0.008964492544818063     0.9055372913799696       -0.017842893244178096    0.008970421194367764
0                         -0.473                   0.6433034282232567       9.32929441858311E-7      0.9053894308746876       -0.017842702198126427    0.008957178987130873     0.905546258210229        -0.017843811251910313    0.008962927300701867
0                         -0.472                   0.6531597172114121       8.498923090266624E-7     0.9053983838051679       -0.017843352701969715    0.00894868197320213      0.9055552169045541       -0.017844544088600985    0.008954461349035707
0                         -0.471                   0.6626958015750517       7.750643922347268E-7     0.9054073282386341       -0.01784401645763759     0.008940184959342906     0.9055641671329273       -0.0178453124779875      0.008945995397411768
0                         -0.47                    0.6719116813141737       7.08445691482518E-7      0.9054162641750865       -0.01784469336935328     0.00893168794550658      0.9055731088953489       -0.017846116162815635    0.008937529445855411
0                         -0.469                   0.6808073564287803       6.500362067700195E-7     0.9054251916145251       -0.017845383342288943    0.008923190931601646     0.9055820421918188       -0.017846954888538755    0.008929063494168533
0                         -0.46799999999999997     0.68938282691887         5.998359380972429E-7     0.9054341105569498       -0.017846086281937658    0.008914693917757706     0.9055909670223373       -0.017847828403198908    0.008920597542627624
0                         -0.46699999999999997     0.6976380927844417       5.578448854641929E-7     0.9054430210023605       -0.01784680209661018     0.008906196903861291     0.905599883386904        -0.017848736457936838    0.008912131590946564
0                         -0.46599999999999997     0.7055571653558524       5.209160265416332E-7     0.9054519228054301       -0.017847532452212284    0.008897105597590193     0.9056087910349641       -0.017849547466980486    0.00890290385751998
0                         -0.46499999999999997     0.7132270150078251       4.997294703859159E-7     0.9054608150980687       -0.017848206805044783    0.008887479679115826     0.9056176891269222       -0.017850309819617133    0.008893280058362698
0                         -0.46399999999999997     0.7206714312831645       4.976800477400764E-7     0.9054696977647884       -0.017848886573889503    0.008877853760749465     0.9056265775950808       -0.017851090533011787    0.008883656259259246
0                         -0.463                   0.7278904141818698       5.147677586041141E-7     0.90547857080559         -0.01784957172876404     0.008868227842328756     0.9056354564394407       -0.017851889505761536    0.008874032460113182
0                         -0.462                   0.7348839637039424       5.509926029780317E-7     0.9054874342204732       -0.017850262240343584    0.0088586019239598       0.9056443256600013       -0.017852706637620862    0.008864408661006011
0                         -0.461                   0.7416520798493816       6.063545808618297E-7     0.9054962880094379       -0.017850958078319164    0.00884897600552146      0.9056531852567626       -0.017853541828262705    0.008854784861858086
0                         -0.46                    0.7481947626181875       6.808536922555083E-7     0.9055051321724843       -0.01785165921361885     0.008839350087064761     0.905662035229725        -0.01785439497905678     0.008845161062663509
0                         -0.459                   0.7545043879973666       7.04116749949677E-7      0.9055139663282604       -0.017852348201960817    0.00882886953949407      0.9056708750961019       -0.017855143389112163    0.008834571752882665
0                         -0.458                   0.7606485388739754       7.142601157966249E-7     0.9055227899115633       -0.01785302000512042     0.00881829706625231      0.9056797043732308       -0.017855900053745648    0.008823982505192585
0                         -0.457                   0.7666272152480144       7.11283789796655E-7      0.9055316029223929       -0.017853692633657905    0.008807724592935265     0.905688523061112        -0.017856664928336975    0.008813393257434226
0                         -0.456                   0.7724404171194831       6.951877719497665E-7     0.9055404053607491       -0.01785436608362137     0.008797152119622951     0.9056973311597455       -0.01785743797913762     0.00880280400963823
0                         -0.455                   0.7780881444883816       6.659720622559606E-7     0.9055491972266321       -0.017855040352184718    0.00878657964630707      0.9057061286691314       -0.017858219175101334    0.008792214761895206
0                         -0.454                   0.7835703973547105       6.236366607152336E-7     0.9055579785200417       -0.017855715436378015    0.008776007172964869     0.9057149155892693       -0.017859008482279958    0.008781625514098385
0                         -0.453                   0.7888809442113871       5.718461404718979E-7     0.9055667492121154       -0.017856391670443478    0.008765212939929259     0.9057236918715684       -0.01785978066157513     0.008770753216886334
0                         -0.452                   0.7940404380433982       5.240837853852716E-7     0.9055755087333026       -0.01785704722488775     0.008753829433968992     0.9057324569183329       -0.017860510021200062    0.008759340312266441
0                         -0.451                   0.799074784110941        4.77929804524036E-7      0.9055842568709834       -0.017857700846006384    0.008742445928084404     0.9057412105521927       -0.017861241406817923    0.008747927407658009
0                         -0.45                    0.8039839824140165       4.333841978881899E-7     0.9055929936251588       -0.01785835253995188     0.008731062422205563     0.9057499527731484       -0.017861974813960308    0.00873651450307698
0                         -0.449                   0.8087680329526236       3.9044696547773427E-7    0.905601718995828        -0.017859002311026252    0.008719678916266285     0.9057586835811992       -0.017862710235552966    0.00872510159848515
0                         -0.448                   0.813426935726763        3.491181072926692E-7     0.9056104329829913       -0.017859650164813386    0.008708295410338306     0.9057674029763453       -0.01786344766630661     0.00871368869390446
0                         -0.447                   0.8179606907364341       3.0939762333299444E-7    0.9056191355866486       -0.017860296106180226    0.008696911904426423     0.9057761109585868       -0.01786418710078456     0.008702275789226152
0                         -0.446                   0.8223633278023404       2.789112015707263E-7     0.9056278266636775       -0.017860934716096157    0.008685078069301407     0.9057848073597885       -0.017864898176572497    0.008690372268390865
0                         -0.445                   0.8266612872001382       2.540242295169152E-7     0.9056365056965259       -0.017861564283002042    0.008672987626916047     0.9057934916679847       -0.01786559496552182     0.00867824412382764
0                         -0.444                   0.8308622450566779       2.3095950948484943E-7    0.9056451726389314       -0.017862190262873178    0.008660897184443562     0.905802163848036        -0.01786629004721582     0.008666115979209379
0                         -0.443                   0.8349662013719603       2.0971704147452606E-7    0.9056538274908947       -0.01786281266173271     0.008648806742061308     0.905810823899943        -0.01786698342380666     0.008653987834652306
0                         -0.442                   0.8389731561459846       1.9029682548594783E-7    0.9056624702524155       -0.01786343148558985     0.008636716299654625     0.9058194718237055       -0.01786767509811432     0.008641859690113194
0                         -0.441                   0.842883109378751        1.726988615191151E-7     0.905671100923494        -0.01786404674110797     0.008624625857231252     0.9058281076193232       -0.01786836507377123     0.00862973154555685
0                         -0.44                    0.8466960610702594       1.5692314957402752E-7    0.9056797195041301       -0.01786465843442968     0.008612535414875387     0.9058367312867965       -0.01786905335382482     0.00861760340101068
0                         -0.439                   0.8504083775919088       1.2895285420034558E-7    0.90568832568596         -0.017865260498325947    0.008599824197559442     0.9058453424944877       -0.017869713318739124    0.008604828312028773
0                         -0.438                   0.8540439960650239       1.0417129350719023E-7    0.9056969191525254       -0.017865857674110232    0.008587108933061941     0.9058539409434205       -0.017870370177713975    0.008592069554167359
0                         -0.437                   0.8576029164896052       8.257846749464023E-8     0.9057054999038259       -0.01786645022370994     0.008574393668486368     0.9058625266335958       -0.017871022900590994    0.008579310796270681
0                         -0.436                   0.8610851388656529       6.417437616269586E-8     0.9057140679398621       -0.017867038150400104    0.008561678403914318     0.905871099565013        -0.017871671490055592    0.008566552038342078
0                         -0.435                   0.8644906631931661       4.895901951135835E-8     0.9057226232606338       -0.01786762145961673     0.008548963139367434     0.9058796597376725       -0.01787231595102647     0.008553793280480095
0                         -0.434                   0.867819489472146        3.6932397540624946E-8    0.9057311658661408       -0.017868200156205428    0.008536247874786412     0.905888207151574        -0.017872956288008262    0.008541034522585452
0                         -0.433                   0.871068856550869        2.934119583082728E-8     0.90573969572346         -0.01786877296747387     0.008523340729073566     0.9058967417698038       -0.017873587293076344    0.008528071336179088
0                         -0.432                   0.8742460136794921       2.681879293007036E-8     0.905748212427224        -0.017869338888416526    0.00851006679947184      0.9059052631807013       -0.01787420492645769     0.00851475045930104
0                         -0.431                   0.8773614883624039       2.65651641614903E-8      0.905756715857059        -0.017869899590799203    0.008496792869995778     0.9059137712707223       -0.01787481713237894     0.008501429582442769
0                         -0.43                    0.8804152805996035       2.8580309525087296E-8    0.9057652060129642       -0.017870455077430507    0.008483518940427318     0.9059222660398663       -0.017875423912735895    0.008488108705506432
0                         -0.429                   0.8834073903910912       3.286422902086107E-8     0.9057736828949398       -0.017871005350043382    0.008470245010906657     0.9059307474881332       -0.01787602527034577     0.008474787828624293
0                         -0.428                   0.8863378177368668       3.94169226488117E-8      0.9057821465029859       -0.017871550411233506    0.008456971081375286     0.9059392156155235       -0.017876621207484546    0.008461466951731462
0                         -0.427                   0.8892065626369305       4.823839040893916E-8     0.9057905968371025       -0.01787209026298705     0.008443697151857301     0.9059476704220367       -0.01787721172626077     0.008448146074851995
0                         -0.426                   0.8920103334398013       6.1231751459265E-8       0.9057990337780665       -0.017872623554877787    0.008430076238092258     0.9059561117839672       -0.017877791632482026    0.00843447075630791
0                         -0.425                   0.894760241246383        7.447578626462151E-8     0.9058074569651153       -0.01787315104318436     0.008416297859255543     0.9059645393409608       -0.017878363472154497    0.008420643231007928
0                         -0.424                   0.8974598249374487       8.64250032547258E-8      0.9058158663737851       -0.017873672964208078    0.008402519480327785     0.9059729530704292       -0.017878929121893677    0.008406815705719614
0                         -0.423                   0.900109084512998        9.707940242957715E-8     0.9058242620040762       -0.017874189317522476    0.008388741101501798     0.9059813529723726       -0.017879488580553257    0.008392988180479772
0                         -0.422                   0.9027080199730315       1.0643898378917818E-7    0.9058326438559882       -0.017874700103179587    0.008374962722653355     0.9059897390467904       -0.01788004184881264     0.008379160655247736
0                         -0.421                   0.9052566313175489       1.1450374733352698E-7    0.9058410119295214       -0.017875205321262834    0.008361184343785043     0.9059981112936829       -0.017880588926807363    0.008365333129966493
0                         -0.42                    0.9077549185465503       1.2127369306262462E-7    0.9058493662246757       -0.01787570497110321     0.008347405964915842     0.9060064697130503       -0.017881129813592897    0.008351505604742251
0                         -0.419                   0.9102000358078833       1.3579529878811622E-7    0.9058577064991036       -0.01787619808025965     0.00833315561595533      0.9060148140589918       -0.01788166081851546     0.008337201971156154
0                         -0.418                   0.9126035563893778       1.488907555661063E-7     0.9058660325359077       -0.017876685608258495    0.008318917991998511     0.9060231441169928       -0.017882185479145038    0.008322914031054517
0                         -0.417                   0.9149654802910342       1.605600633965472E-7     0.9058743443350876       -0.017877167385666897    0.008304680367950526     0.9060314598870536       -0.01788270358821429     0.008308626090882683
0                         -0.416                   0.9172858075128525       1.7080322227943983E-7    0.9058826418966435       -0.017877643411072387    0.008290442743939285     0.9060397613691744       -0.01788321514337243     0.00829433815071653
0                         -0.415                   0.9195645380548325       1.7962023221478316E-7    0.9058909252205755       -0.017878113683446148    0.008276205119952557     0.906048048563355        -0.01788372014303623     0.008280050210617078
0                         -0.414                   0.9218016719169744       1.8701109320257764E-7    0.9058991943068834       -0.017878578201151733    0.008261967495915384     0.9060563214695955       -0.01788421858585513     0.008265762270439082
0                         -0.413                   0.9239955684606855       1.909110541736463E-7     0.9059074491278398       -0.017879036772367622    0.008247576500096845     0.9060645800597174       -0.01788470990984027     0.00825131954101422
0                         -0.41200000000000003     0.9261491424025547       1.896686661818421E-7     0.9059156893749609       -0.017879489432142032    0.008232917742270389     0.9060728240245283       -0.017885193791191367    0.008236610080589702
0                         -0.41100000000000003     0.9282679526973575       1.8762008242717702E-7    0.9059239149633243       -0.01787993627578382     0.008218258984429717     0.9060810532798785       -0.017885671031250442    0.008221900620272605
0                         -0.41000000000000003     0.930351999345095        1.8476530290965132E-7    0.9059321258929297       -0.01788037730184086     0.008203600226678518     0.9060892678257686       -0.017886141628472053    0.008207191159980918
0                         -0.40900000000000003     0.9324012823457666       1.811043276292647E-7     0.9059403221637775       -0.017880812507718356    0.008188941468865786     0.9060974676621983       -0.017886605579907906    0.008192481699635297
0                         -0.40800000000000003     0.9344158016993722       1.7663715658601742E-7    0.9059485037758674       -0.017881241891599637    0.008174282711066948     0.906105652789168        -0.017887062883468315    0.008177772239331683
0                         -0.40700000000000003     0.9363955574059118       1.7136378977990927E-7    0.9059566707291996       -0.017881665451402552    0.008159623953263478     0.906113823206677        -0.01788751353683435     0.008163062778966697
0                         -0.406                   0.9383382807795048       1.6528229455947566E-7    0.905964822929203        -0.01788208307330896     0.008144693818806663     0.9061219788197931       -0.01788795716435435     0.008148081416907468
0                         -0.405                   0.9402496217216866       1.6022116027123037E-7    0.9059729600993623       -0.017882494876362055    0.008129646500015667     0.9061301193522258       -0.017888394028853016    0.00813298344844835
0                         -0.404                   0.9421316176871184       1.5654685784506843E-7    0.9059810822222032       -0.017882900857008756    0.008114599181158703     0.90613824478669         -0.0178888242573679      0.008117885479920544
0                         -0.403                   0.9439842686757987       1.542593872809904E-7     0.9059891892977249       -0.01788330101400156     0.008099551862273232     0.9061463551231855       -0.01788924784912232     0.008102787511358327
0                         -0.402                   0.9458075746877281       1.5335874857899615E-7    0.9059972813259276       -0.017883695345401206    0.00808450454341988      0.9061544503617127       -0.017889664800427595    0.00808768954284146
0                         -0.401                   0.9476015357229067       1.5384494173908554E-7    0.9060053583068116       -0.017884083848722764    0.008069457224532535     0.9061625305022712       -0.017890075110064844    0.008072591574320363
0                         -0.4                     0.9493661517813344       1.5571796676125863E-7    0.9060134202403768       -0.017884466523358858    0.008054409905612289     0.9061705955448613       -0.017890478776087036    0.008057493605708954
0                         -0.399                   0.9510990711641102       1.6197991095837267E-7    0.906021466935138        -0.017884843346841133    0.008038990865729796     0.9061786452980164       -0.017890875699698553    0.008042024201791072
0                         -0.398                   0.9528069895900866       1.6908460714071564E-7    0.9060294982221084       -0.01788521441979771     0.00802358307505565      0.906186679593265        -0.017891266140238206    0.008026566295277801
0                         -0.397                   0.9544899070592628       1.7703205530827156E-7    0.9060375141012879       -0.017885579726337305    0.008008175284241107     0.9061946984306068       -0.01789165008177074     0.008011108388646266
0                         -0.396                   0.9561478235716395       1.858222554610396E-7     0.9060455145726767       -0.017885939265766065    0.007992767493485979     0.9062027018100421       -0.01789202752318406     0.007995650482034194
0                         -0.395                   0.9577807391272166       1.954552075990201E-7     0.9060534996362748       -0.017886293036875972    0.007977359702741613     0.906210689731571        -0.01789239846286502     0.007980192575447005
0                         -0.394                   0.959388653725994        2.0593091172221366E-7    0.9060614692920822       -0.017886641037916887    0.007961951911919158     0.9062186621951932       -0.017892762899644286    0.007964734668839273
0                         -0.393                   0.9609704545577284       2.1667061138330262E-7    0.9060694235180765       -0.017886983261149347    0.00794642204943551      0.9062266191788703       -0.017893120803662316    0.007949154770867939
0                         -0.392                   0.9625273758832514       2.2612858783922096E-7    0.9060773620682155       -0.017887319772905235    0.007930678228447022     0.9062345604370596       -0.01789347226589217     0.007933361607753682
0                         -0.391                   0.9640628168585867       2.3497887283676203E-7    0.9060852848745332       -0.01788765060369794     0.007914934407369994     0.9062424859020857       -0.01789381738186511     0.007917568444543712
0                         -0.39                    0.9655767774837345       2.432214663759257E-7     0.9060931919370301       -0.01788797575381964     0.007899190586362594     0.9062503955739487       -0.017894156152735333    0.007901775281388605
0                         -0.389                   0.9670692577586949       2.508563684567129E-7     0.906101083255706        -0.017888295222481376    0.00788344676532948      0.9062582894526485       -0.01789448857779623     0.007885982118215907
0                         -0.388                   0.9685402576834676       2.578835790791226E-7     0.9061089588305609       -0.01788860901117696     0.007867702944303915     0.9062661675381851       -0.017894814657386536    0.007870188955050223
0                         -0.387                   0.969989777258053        2.643030982431558E-7     0.9061168186615947       -0.017888917118734325    0.007851959123290505     0.9062740298305587       -0.017895134391385424    0.007854395791869678
0                         -0.386                   0.9714161776716371       2.674341129528229E-7     0.9061246626729342       -0.01788921954712905     0.007835996625845837     0.9062818762539793       -0.01789544771936153     0.007838384417184143
0                         -0.385                   0.972822689865717        2.6789988271663345E-7    0.9061324906403495       -0.017889516391605357    0.007819938204745979     0.9062897065850242       -0.017895754834309965    0.007822277672575314
0                         -0.384                   0.974210615552917        2.668973846347168E-7     0.9061403025493436       -0.017889807670582215    0.007803879783645557     0.9062975208093244       -0.01789605579885905     0.007806170927966585
0                         -0.383                   0.9755799547332378       2.64426618707073E-7      0.9061480983999168       -0.017890093384202985    0.007787821362551556     0.9063053189268802       -0.017896350613889604    0.007790064183392523