% Model:              C1EqPe1Eps01.mph
% Version:            COMSOL 5.6.0.280
% Date:               Jun 2 2021, 22:50
% Dimension:          2
% Nodes:              10201
% Expressions:        11
% Description:        Velocity field, x component, Velocity field, y component, Dependent variable u4, Gradient of u4, x component, Gradient of u4, y component, Dependent variable u6, Gradient of u6, x component, Gradient of u6, y component, , , Gradient of u4, y component
% Length unit:        m
% x                       y                        u2 (m/s)                 v2 (m/s)                 u4 (1)                   u4x (1/m)                u4y (1/m)                u6 (1)                   u6x (1/m)                u6y (1/m)                -u2*u4+u4x               -u2*u6+u6x               u4y (1/m)
-0.5                      -0.5                     NaN                      NaN                      NaN                      NaN                      NaN                      NaN                      NaN                      NaN                      NaN                      NaN                      NaN
-0.49                     -0.5                     NaN                      NaN                      NaN                      NaN                      NaN                      NaN                      NaN                      NaN                      NaN                      NaN                      NaN
-0.48                     -0.5                     NaN                      NaN                      NaN                      NaN                      NaN                      NaN                      NaN                      NaN                      NaN                      NaN                      NaN
-0.47                     -0.5                     NaN                      NaN                      NaN                      NaN                      NaN                      NaN                      NaN                      NaN                      NaN                      NaN                      NaN
-0.46                     -0.5                     NaN                      NaN                      NaN                      NaN                      NaN                      NaN                      NaN                      NaN                      NaN                      NaN                      NaN
-0.45                     -0.5                     NaN                      NaN                      NaN                      NaN                      NaN                      NaN                      NaN                      NaN                      NaN                      NaN                      NaN
-0.44                     -0.5                     NaN                      NaN                      NaN                      NaN                      NaN                      NaN                      NaN                      NaN                      NaN                      NaN                      NaN
-0.43                     -0.5                     NaN                      NaN                      NaN                      NaN                      NaN                      NaN                      NaN                      NaN                      NaN                      NaN                      NaN
-0.42                     -0.5                     NaN                      NaN                      NaN                      NaN                      NaN                      NaN                      NaN                      NaN                      NaN                      NaN                      NaN
-0.41000000000000003      -0.5                     NaN                      NaN                      NaN                      NaN                      NaN                      NaN                      NaN                      NaN                      NaN                      NaN                      NaN
-0.4                      -0.5                     NaN                      NaN                      NaN                      NaN                      NaN                      NaN                      NaN                      NaN                      NaN                      NaN                      NaN
-0.39                     -0.5                     NaN                      NaN                      NaN                      NaN                      NaN                      NaN                      NaN                      NaN                      NaN                      NaN                      NaN
-0.38                     -0.5                     NaN                      NaN                      NaN                      NaN                      NaN                      NaN                      NaN                      NaN                      NaN                      NaN                      NaN
-0.37                     -0.5                     NaN                      NaN                      NaN                      NaN                      NaN                      NaN                      NaN                      NaN                      NaN                      NaN                      NaN
-0.36                     -0.5                     NaN                      NaN                      NaN                      NaN                      NaN                      NaN                      NaN                      NaN                      NaN                      NaN                      NaN
-0.35                     -0.5                     NaN                      NaN                      NaN                      NaN                      NaN                      NaN                      NaN                      NaN                      NaN                      NaN                      NaN
-0.33999999999999997      -0.5                     NaN                      NaN                      NaN                      NaN                      NaN                      NaN                      NaN                      NaN                      NaN                      NaN                      NaN
-0.32999999999999996      -0.5                     NaN                      NaN                      NaN                      NaN                      NaN                      NaN                      NaN                      NaN                      NaN                      NaN                      NaN
-0.32                     -0.5                     NaN                      NaN                      NaN                      NaN                      NaN                      NaN                      NaN                      NaN                      NaN                      NaN                      NaN
-0.31                     -0.5                     NaN                      NaN                      NaN                      NaN                      NaN                      NaN                      NaN                      NaN                      NaN                      NaN                      NaN
-0.3                      -0.5                     NaN                      NaN                      NaN                      NaN                      NaN                      NaN                      NaN                      NaN                      NaN                      NaN                      NaN
-0.29000000000000004      -0.5                     NaN                      NaN                      NaN                      NaN                      NaN                      NaN                      NaN                      NaN                      NaN                      NaN                      NaN
-0.28                     -0.5                     NaN                      NaN                      NaN                      NaN                      NaN                      NaN                      NaN                      NaN                      NaN                      NaN                      NaN
-0.27                     -0.5                     NaN                      NaN                      NaN                      NaN                      NaN                      NaN                      NaN                      NaN                      NaN                      NaN                      NaN
-0.26                     -0.5                     NaN                      NaN                      NaN                      NaN                      NaN                      NaN                      NaN                      NaN                      NaN                      NaN                      NaN
-0.25                     -0.5                     NaN                      NaN                      NaN                      NaN                      NaN                      NaN                      NaN                      NaN                      NaN                      NaN                      NaN
-0.24                     -0.5                     NaN                      NaN                      NaN                      NaN                      NaN                      NaN                      NaN                      NaN                      NaN                      NaN                      NaN
-0.22999999999999998      -0.5                     NaN                      NaN                      NaN                      NaN                      NaN                      NaN                      NaN                      NaN                      NaN                      NaN                      NaN
-0.21999999999999997      -0.5                     NaN                      NaN                      NaN                      NaN                      NaN                      NaN                      NaN                      NaN                      NaN                      NaN                      NaN
-0.21000000000000002      -0.5                     NaN                      NaN                      NaN                      NaN                      NaN                      NaN                      NaN                      NaN                      NaN                      NaN                      NaN
-0.2                      -0.5                     NaN                      NaN                      NaN                      NaN                      NaN                      NaN                      NaN                      NaN                      NaN                      NaN                      NaN
-0.19                     -0.5                     NaN                      NaN                      NaN                      NaN                      NaN                      NaN                      NaN                      NaN                      NaN                      NaN                      NaN
-0.18                     -0.5                     NaN                      NaN                      NaN                      NaN                      NaN                      NaN                      NaN                      NaN                      NaN                      NaN                      NaN
-0.16999999999999998      -0.5                     NaN                      NaN                      NaN                      NaN                      NaN                      NaN                      NaN                      NaN                      NaN                      NaN                      NaN
-0.15999999999999998      -0.5                     NaN                      NaN                      NaN                      NaN                      NaN                      NaN                      NaN                      NaN                      NaN                      NaN                      NaN
-0.14999999999999997      -0.5                     NaN                      NaN                      NaN                      NaN                      NaN                      NaN                      NaN                      NaN                      NaN                      NaN                      NaN
-0.14                     -0.5                     NaN                      NaN                      NaN                      NaN                      NaN                      NaN                      NaN                      NaN                      NaN                      NaN                      NaN
-0.13                     -0.5                     NaN                      NaN                      NaN                      NaN                      NaN                      NaN                      NaN                      NaN                      NaN                      NaN                      NaN
-0.12                     -0.5                     NaN                      NaN                      NaN                      NaN                      NaN                      NaN                      NaN                      NaN                      NaN                      NaN                      NaN
-0.10999999999999999      -0.5                     NaN                      NaN                      NaN                      NaN                      NaN                      NaN                      NaN                      NaN                      NaN                      NaN                      NaN
-0.09999999999999998      -0.5                     NaN                      NaN                      NaN                      NaN                      NaN                      NaN                      NaN                      NaN                      NaN                      NaN                      NaN
-0.08999999999999997      -0.5                     NaN                      NaN                      NaN                      NaN                      NaN                      NaN                      NaN                      NaN                      NaN                      NaN                      NaN
-0.08000000000000002      -0.5                     NaN                      NaN                      NaN                      NaN                      NaN                      NaN                      NaN                      NaN                      NaN                      NaN                      NaN
-0.07                     -0.5                     NaN                      NaN                      NaN                      NaN                      NaN                      NaN                      NaN                      NaN                      NaN                      NaN                      NaN
-0.06                     -0.5                     NaN                      NaN                      NaN                      NaN                      NaN                      NaN                      NaN                      NaN                      NaN                      NaN                      NaN
-0.04999999999999999      -0.5                     NaN                      NaN                      NaN                      NaN                      NaN                      NaN                      NaN                      NaN                      NaN                      NaN                      NaN
-0.03999999999999998      -0.5                     NaN                      NaN                      NaN                      NaN                      NaN                      NaN                      NaN                      NaN                      NaN                      NaN                      NaN
-0.02999999999999997      -0.5                     NaN                      NaN                      NaN                      NaN                      NaN                      NaN                      NaN                      NaN                      NaN                      NaN                      NaN
-0.020000000000000018     -0.5                     NaN                      NaN                      NaN                      NaN                      NaN                      NaN                      NaN                      NaN                      NaN                      NaN                      NaN
-0.010000000000000009     -0.5                     NaN                      NaN                      NaN                      NaN                      NaN                      NaN                      NaN                      NaN                      NaN                      NaN                      NaN
0                         -0.5                     -6.876281542782703E-15   1.1736226321697686E-18   0.9051456567610332       -0.017826384847455818    0.009053958689997157     0.9051456567610332       -0.017826384847541083    0.009053958690054001     -0.017826384847449594    -0.01782638484753486     0.009053958689997157
0.010000000000000009      -0.5                     -1.9346540016498869E-16  -3.373740490639551E-19   0.9049671941402953       -0.017864050156994982    0.009049925058804023     0.9049671941402953       -0.017864050156994982    0.009049925058576649     -0.01786405015699481     -0.01786405015699481     0.009049925058804023
0.020000000000000018      -0.5                     8.613613179220678E-16    6.723467593439109E-19    0.9047884016628843       -0.017893316520338588    0.009048106585276668     0.9047884016628844       -0.01789331652039543     0.009048106585276668     -0.017893316520339368    -0.01789331652039621     0.009048106585276668
0.030000000000000027      -0.5                     -6.815425623581799E-16   -3.048043765266351E-19   0.9046093515392654       -0.017915838760360757    0.009046279298441625     0.9046093515392654       -0.017915838760345363    0.009046279298439697     -0.01791583876036014     -0.017915838760344745    0.009046279298441625
0.040000000000000036      -0.5                     -6.056646373805944E-17   -1.7689157571619475E-20  0.9044300997540712       -0.01793380151232622     0.009044470670128712     0.9044300997540712       -0.01793380151227805     0.009044470670192144     -0.017933801512326163    -0.017933801512277994    0.009044470670128712
0.050000000000000044      -0.5                     -3.9163675618974674E-16  -6.035043480295725E-20   0.9042506918164386       -0.017947185317387693    0.009042655372253959     0.9042506918164386       -0.017947185317387693    0.009042655372257511     -0.01794718531738734     -0.01794718531738734     0.009042655372253959
0.06000000000000005       -0.5                     -1.2630039565344904E-15  -1.6853917346076105E-19  0.9040711666255307       -0.01795733676652789     0.009040849323447888     0.9040711666255307       -0.017957336766471047    0.009040849323447888     -0.01795733676652675     -0.017957336766469906    0.009040849323447888
0.07000000000000006       -0.5                     -8.550693145686085E-16   -6.267487204169824E-20   0.9038915570871995       -0.01796412521661103     0.009039039691928772     0.9038915570871995       -0.01796412521661103     0.009039039691928772     -0.017964125216610255    -0.017964125216610255    0.009039039691928772
0.07999999999999996       -0.5                     -6.210435208715763E-16   -4.590991355152779E-20   0.9037118920595931       -0.017968488247174015    0.009037233717099169     0.9037118920595931       -0.017968488247174015    0.009037233717099169     -0.017968488247173453    -0.017968488247173453    0.009037233717099169
0.08999999999999997       -0.5                     2.8378259716673834E-16   1.2557508350168504E-20   0.9035321964192792       -0.017970293832694304    0.009035428179777986     0.9035321964192792       -0.017970293832707308    0.009035428179770306     -0.01797029383269456     -0.017970293832707564    0.009035428179777986
0.09999999999999998       -0.5                     6.071394245481627E-16    2.855568805978647E-20    0.9033524923117361       -0.017970221827585123    0.009033623945520158     0.9033524923117361       -0.017970221827585123    0.009033623945520158     -0.01797022182758567     -0.01797022182758567     0.009033623945520158
0.10999999999999999       -0.5                     -6.413281664983242E-16   -1.975918045646112E-20   0.9031727989769227       -0.017968170601959158    0.00903182049503914      0.9031727989769226       -0.01796817060198758     0.009031820494968085     -0.01796817060195858     -0.017968170601987       0.00903182049503914
0.12                      -0.5                     -3.2014363139476544E-16  -1.033639106683351E-20   0.9029931336991095       -0.017964643528220154    0.009030018164425084     0.9029931336991095       -0.017964643528220154    0.009030018164425084     -0.017964643528219866    -0.017964643528219866    0.009030018164425084
0.13                      -0.5                     -3.9135436754140745E-16  -8.779471488793586E-21   0.9028135115255774       -0.01795957177239251     0.009028217077387683     0.9028135115255773       -0.017959571772370748    0.009028217077331186     -0.017959571772392158    -0.017959571772370394    0.009028217077387683
0.14                      -0.5                     2.026463787404909E-16    4.671434446066447E-21    0.9026339460423962       -0.01795333390104913     0.009026417307685317     0.9026339460423962       -0.01795333390104913     0.00902641730757163      -0.017953333901049313    -0.017953333901049313    0.009026417307685317
0.15000000000000002       -0.5                     1.5026382761968507E-16   2.5493864331650885E-21   0.9024544490482744       -0.017945890121771606    0.009024618768972868     0.9024544490482744       -0.017945890121782222    0.009024618768960966     -0.01794589012177174     -0.017945890121782358    0.009024618768972868
0.16000000000000003       -0.5                     -9.294500442672911E-16   -1.599974327987927E-20   0.9022750312067732       -0.017937527844889337    0.009022821489809388     0.9022750312067732       -0.017937527844889337    0.009022821489809388     -0.017937527844888498    -0.017937527844888498    0.009022821489809388
0.17000000000000004       -0.5                     1.750346499110343E-16    2.3196995297546603E-21   0.9020957017298055       -0.0179282295104655      0.009021025466886993     0.9020957017298055       -0.0179282295104655      0.009021025466886993     -0.01792822951046566     -0.01792822951046566     0.009021025466886993
0.18000000000000005       -0.5                     -6.407285967823731E-16   -8.490330660769377E-21   0.9019164689269524       -0.017918214043935808    0.009019230681096948     0.9019164689269524       -0.017918214043935808    0.009019230681096948     -0.01791821404393523     -0.01791821404393523     0.009019230681096948
0.19000000000000006       -0.5                     5.350505606051365E-16    5.565278486252486E-21    0.9017373399135136       -0.017907481489805217    0.00901743696354784      0.9017373399135137       -0.017907481489805217    0.009017436963405732     -0.0179074814898057      -0.0179074814898057      0.00901743696354784
0.20000000000000007       -0.5                     1.7638292930230733E-17   1.840843008395818E-22    0.9015583210656964       -0.017896198700188735    0.009015644395252211     0.9015583210656963       -0.017896198700131892    0.009015644395436952     -0.017896198700188753    -0.01789619870013191     0.009015644395252211
0.20999999999999996       -0.5                     -4.345081382090767E-16   -3.585023163071783E-21   0.901379417778426        -0.017884377604401612    0.009013853146037903     0.9013794177784259       -0.017884377604430034    0.009013853146180011     -0.01788437760440122     -0.01788437760442964     0.009013853146037903
0.21999999999999997       -0.5                     2.1670931714222195E-16   1.7313305010405605E-21   0.901200634833127        -0.017872145248906412    0.009012063420077815     0.9012006348331271       -0.01787214524891424     0.00901206341994848      -0.017872145248906606    -0.017872145248914433    0.009012063420077815
0.22999999999999998       -0.5                     1.5845062969591833E-16   1.0185327973004729E-21   0.9010219762005108       -0.017859522125474564    0.009010275197467863     0.9010219762005108       -0.017859522125474564    0.009010275197467863     -0.017859522125474706    -0.017859522125474706    0.009010275197467863
0.24                      -0.5                     3.5149483225005705E-16   2.2388589690097635E-21   0.9008434453352674       -0.017846604121561076    0.009008488409285278     0.9008434453352674       -0.017846604121504232    0.009008488409285278     -0.01784660412156139     -0.017846604121504548    0.009008488409285278
0.25                      -0.5                     -4.264564203877594E-16   -2.205408683887793E-21   0.9006650450269885       -0.017833417014727168    0.009006703009793504     0.9006650450269885       -0.017833417014727168    0.009006703009793504     -0.017833417014726783    -0.017833417014726783    0.009006703009793504
0.26                      -0.5                     -8.704716401231087E-16   -4.345351014883851E-21   0.9004867776272303       -0.017820032326602467    0.009004919113533731     0.9004867776272303       -0.017820032326602467    0.009004919113420044     -0.017820032326601683    -0.017820032326601683    0.009004919113533731
0.27                      -0.5                     3.822836347223001E-17    1.580356019968775E-22    0.9003086449488783       -0.017806478529975224    0.009003136685798843     0.9003086449488783       -0.017806478529969385    0.009003136685816465     -0.01780647852997526     -0.01780647852996942     0.009003136685798843
0.28                      -0.5                     3.927162972567975E-17    1.5738402672894107E-22   0.9001306484267977       -0.01779280884094039     0.009001355768760922     0.9001306484267977       -0.01779280884094039     0.009001355768874609     -0.017792808840940425    -0.017792808840940425    0.009001355768760922
0.29000000000000004       -0.5                     8.764472566193317E-18    2.909503690105905E-23    0.8999527890633818       -0.017779052224922227    0.008999576304654174     0.8999527890633818       -0.017779052224922227    0.008999576304654174     -0.017779052224922234    -0.017779052224922234    0.008999576304654174
0.30000000000000004       -0.5                     8.785353310127896E-17    2.777025989432066E-22    0.8997750675349185       -0.017765247650721575    0.008997798251486468     0.8997750675349186       -0.017765247650721575    0.008997798251372782     -0.017765247650721655    -0.017765247650721655    0.008997798251486468
0.31000000000000005       -0.5                     2.440485051894127E-16    6.301765541151284E-22    0.8995974841783079       -0.017751423004513236    0.008996021638689743     0.8995974841783079       -0.017751423004513236    0.008996021638689743     -0.017751423004513454    -0.017751423004513454    0.008996021638689743
0.32000000000000006       -0.5                     2.8561244472289227E-16   7.025839307089285E-22    0.8994200390476867       -0.01773760649896323     0.008994246531037132     0.8994200390476867       -0.01773760649896323     0.008994246530923445     -0.017737606498963488    -0.017737606498963488    0.008994246531037132
0.33000000000000007       -0.5                     7.748892120225644E-17    1.57259579193171E-22     0.8992427319379739       -0.01772382374375654     0.008992472904252766     0.8992427319379739       -0.01772382374375654     0.008992472904252766     -0.017723823743756608    -0.017723823743756608    0.008992472904252766
0.33999999999999997       -0.5                     -8.13955377368002E-17    -1.5640425757746417E-22  0.8990655623987582       -0.01771009492650317     0.008990700645401969     0.8990655623987583       -0.017710094926560012    0.008990700645288282     -0.017710094926503096    -0.01771009492655994     0.008990700645401969
0.35                      -0.5                     3.504771871392833E-16    5.60220755543494E-22     0.8988885297890297       -0.017696442621515325    0.0089889297335439       0.8988885297890299       -0.01769644262151742     0.008988929733837322     -0.01769644262151564     -0.017696442621517736    0.0089889297335439
0.36                      -0.5                     6.032196276575328E-17    8.948736684886165E-23    0.8987116332516092       -0.017682881682189094    0.008987160138336238     0.8987116332516092       -0.01768288168218684     0.008987160138355856     -0.01768288168218915     -0.017682881682186895    0.008987160138336238
0.37                      -0.5                     4.6536417541145E-16      5.761597848221867E-22    0.8985348717959671       -0.017669430786150436    0.00898539183526085      0.8985348717959671       -0.017669430786150436    0.00898539183526085      -0.017669430786150856    -0.017669430786150856    0.00898539183526085
0.38                      -0.5                     5.183655233405862E-16    5.607713509148601E-22    0.8983582442466657       -0.017656100527631495    0.008983624891341725     0.8983582442466657       -0.017656100527631495    0.008983624891114352     -0.01765610052763196     -0.01765610052763196     0.008983624891341725
0.39                      -0.5                     1.0406803062289243E-16   9.420325112189464E-23    0.8981817493445945       -0.017642905651470215    0.008981859380641938     0.8981817493445945       -0.017642905651470215    0.008981859380641938     -0.01764290565147031     -0.01764290565147031     0.008981859380641938
0.4                       -0.5                     -1.21274381949801E-17    -9.60789334477158E-24    0.898005385670215        -0.01762985413805387     0.008980095286882565     0.898005385670215        -0.01762985413805387     0.008980095286996252     -0.01762985413805386     -0.01762985413805386     0.008980095286882565
0.41000000000000003       -0.5                     -1.5328808773536436E-16  -1.0402586921161467E-22  0.8978291517623246       -0.01761695648246999     0.008978332535843438     0.8978291517623247       -0.017616956482413147    0.008978332535672907     -0.017616956482469852    -0.01761695648241301     0.008978332535843438
0.42000000000000004       -0.5                     -1.2221954384871115E-16  -6.901629145979991E-23   0.8976530460207998       -0.017604219286028268    0.008976571081857255     0.8976530460207998       -0.017604219286028136    0.008976571081837104     -0.017604219286028157    -0.017604219286028025    0.008976571081857255