% Model:              C1noStruct.mph
% Version:            COMSOL 5.6.0.280
% Date:               Apr 15 2021, 09:31
% Dimension:          2
% Nodes:              401
% Expressions:        6
% Description:        Velocity field, x component, Velocity field, y component, Concentration, Gradient of c, x component, Gradient of c, y component, 
% Length unit:        m
% x                       y                        u (m/s)                  v (m/s)                  c (mol/m^3)              cx (mol/m^4)             cy (mol/m^4)             -u*c+cx
-2                        0                        1.4995576771290111       1.0919356877716938E-11   0.9439418535666654       -0.018463902202621056    1.4465501496238948E-9    -1.433959155481903
-1.99                     0                        1.4995576771518946       1.0692437643995655E-11   0.9437572333677484       -0.018460137580757322    -3.820963258194073E-9    -1.4336785422449967
-1.98                     0                        1.4995576771727697       1.054187040629534E-11    0.9435726505636133       -0.018456458522715876    -4.483903068703653E-8    -1.4333980706456413
-1.97                     0                        1.4995576771918353       1.0256024921578344E-11   0.9433881053286983       -0.018452632374523693    -4.2345268369475215E-8   -1.4331175082916332
-1.96                     0                        1.4995576772092267       1.0092879631615228E-11   0.9432035975911511       -0.018448896073655754    2.609671546130237E-8     -1.4328370920128286
-1.95                     0                        1.4995576772249848       9.838670858831767E-12    0.9430191274305102       -0.01844513930332504     5.352001783347391E-9     -1.432556711611753
-1.94                     0                        1.499557677239362        9.620916866212398E-12    0.9428346946961081       -0.018441390623180513    -3.3794396251623795E-8   -1.4322763954223596
-1.93                     0                        1.4995576772524306       9.380731284268453E-12    0.9426502994283654       -0.018437658260390198    1.8662062523099615E-8    -1.4319961517324982
-1.92                     0                        1.4995576772642616       9.131866872931048E-12    0.9424659418291451       -0.018433861583658992    -1.4155442229302702E-10  -1.4317159002136466
-1.91                     0                        1.4995576772749384       8.944248036457585E-12    0.9422816218636823       -0.018430130398486975    -6.142726618016873E-9    -1.4314357706192522
-1.9                      0                        1.499557677284623        8.673375116070774E-12    0.9420973393160491       -0.018426391400607374    2.008115863306314E-8     -1.4311556893214052
-1.89                     0                        1.4995576772933543       8.437681300621278E-12    0.941913094287405        -0.018422615545644064    -4.937067449863206E-9    -1.4308756274274614
-1.88                     0                        1.499557677301255        8.21339012429141E-12     0.9417288869338564       -0.018418855164070286    -6.13494506650628E-9     -1.4305956375021003
-1.87                     0                        1.4995576773083774       7.970174758706493E-12    0.9415447171046483       -0.01841511857440244     -1.0197854878011675E-7   -1.430315727637822
-1.8599999999999999       0                        1.499557677314746        7.736164707417448E-12    0.9413605846711608       -0.018411353472469638    -5.742569819900731E-8    -1.430035845337607
-1.85                     0                        1.4995576773204806       7.503518285591619E-12    0.941176490037583        -0.01840757324315721     -2.646297909488809E-8    -1.4297560045925577
-1.84                     0                        1.499557677325604        7.28072410804464E-12     0.9409924329329058       -0.018403849611758043    1.7538133402279724E-8    -1.4294762767215954
-1.83                     0                        1.4995576773301829       7.052092312233667E-12    0.9408084134544071       -0.018400046087981375    5.255105352162786E-9     -1.4291965253803665
-1.82                     0                        1.4995576773342505       6.8336431051599964E-12   0.9406244317888863       -0.018396298489724912    -5.63168494698415E-9     -1.4289168866669166
-1.81                     0                        1.499557677337883        6.615439396133186E-12    0.9404404876194168       -0.018392535404169626    -6.5912885054518385E-9   -1.4286372886932484
-1.8                      0                        1.4995576773410966       6.387677161816107E-12    0.9402565809212668       -0.01838876575017882     -3.6679767230365456E-8   -1.4283577403411547
-1.79                     0                        1.4995576773439465       6.1761247080458925E-12   0.9400727119503606       -0.018385019028502207    4.431185188144099E-8     -1.4280782714952098
-1.78                     0                        1.4995576773464487       5.969759001585454E-12    0.939888880713446        -0.018381239620469822    5.936493387146304E-9     -1.4277988265468784
-1.77                     0                        1.499557677348652        5.762825233172346E-12    0.9397050871068564       -0.018377469178757364    -8.15127210442053E-9     -1.4275194469934276
-1.76                     0                        1.4995576773505714       5.558999898849518E-12    0.9395213312383215       -0.01837370722128825     3.5977747595234573E-9    -1.4272401325143425
-1.75                     0                        1.4995576773522503       5.3641028856745685E-12   0.9393376129106771       -0.01836997300049565     5.773778263455572E-8     -1.4269609020664378
-1.74                     0                        1.4995576773537005       5.1684824403861244E-12   0.9391539322870739       -0.018366179663353552    -1.9696102228995204E-8   -1.4266816690413526
-1.73                     0                        1.499557677354948        4.980992166619113E-12    0.9389702895355726       -0.01836239749075968     -5.439137868834746E-9    -1.4264025039720258
-1.72                     0                        1.4995576773560153       4.7972873305144805E-12   0.9387866844197444       -0.01835862567485879     5.144907355916547E-9     -1.4261234056960852
-1.71                     0                        1.4995576773569206       4.616701493636977E-12    0.9386031168926314       -0.018354844978687675    5.647818273939525E-8     -1.4258443549061683
-1.7                      0                        1.4995576773576853       4.43859549210734E-12     0.9384195871770219       -0.018351082958571546    -3.4208373177194615E-8   -1.4255653794927043
-1.69                     0                        1.4995576773583157       4.271036190629402E-12    0.9382360953925457       -0.01834727393665797     -3.1833526282289713E-9   -1.425286413957239
-1.68                     0                        1.499557677358829        4.1009763634657E-12      0.9380526411121669       -0.018343527634385494    5.476294249762561E-10    -1.4250075673808618
-1.67                     0                        1.4995576773592454       3.9383461824065856E-12   0.9378692247483421       -0.018339745130585398    4.071584482188749E-9     -1.4247287414609253
-1.66                     0                        1.4995576773595711       3.785070775203359E-12    0.9376858461328788       -0.018336012374283655    5.0793012840847735E-8    -1.4244500218942475
-1.65                     0                        1.4995576773598163       3.6287192975336607E-12   0.937502505107554        -0.018332192690667725    1.947159548779944E-8     -1.4241712717687605
-1.6400000000000001       0                        1.4995576773599897       3.480864770345964E-12    0.9373192022358371       -0.01832840475043042     -7.90436457023927E-9     -1.4238926106001206
-1.63                     0                        1.4995576773601031       3.3360805831010066E-12   0.9371359371051206       -0.018324621392872536    -5.671463815437497E-9    -1.4236140106089108
-1.62                     0                        1.4995576773601624       3.195463025125231E-12    0.9369527097993042       -0.018320845669512708    -8.199942365074307E-8    -1.4233354749724676
-1.6099999999999999       0                        1.499557677360177        3.0596881184674417E-12   0.9367695200642404       -0.01831706572847095     -2.072228517717517E-8    -1.4230569914578113
-1.6                      0                        1.4995576773601509       2.928217625959742E-12    0.9365863684889796       -0.01831324932366608     7.543833322933911E-10    -1.4227785287021788
-1.5899999999999999       0                        1.49955767736009         2.8011260706097752E-12   0.9364032547115309       -0.01830948716855709     1.48158269330534E-8      -1.422500176876209
-1.58                     0                        1.4995576773600006       2.6775554212502545E-12   0.9362201787363119       -0.018305692040281065    -1.47783382489872E-10    -1.4222218487636695
-1.57                     0                        1.4995576773598862       2.5596432415178033E-12   0.9360371407499558       -0.018301905139311413    -4.284717531803051E-9    -1.421943585844904
-1.56                     0                        1.4995576773597517       2.4432070427800053E-12   0.9358541405643113       -0.01829813120016307     8.615444419554572E-9     -1.4216653925722882
-1.55                     0                        1.4995576773596002       2.3333023596214413E-12   0.9356711783557122       -0.018294310519661194    6.397100598246014E-9     -1.4213872095070732
-1.54                     0                        1.499557677359435        2.2248689965726537E-12   0.9354882541342213       -0.018290541330844037    4.870768208717771E-10    -1.4211091348973899
-1.53                     0                        1.499557677359259        2.122437633644206E-12    0.9353053678169494       -0.01828672725090114     -8.439819399612577E-9    -1.420831072236133
-1.52                     0                        1.4995576773590753       2.0225831410968384E-12   0.9351225195466771       -0.018282926803580266    -1.9767324698260163E-9   -1.420553080261162
-1.51                     0                        1.4995576773588855       1.926294570442887E-12    0.9349397090238317       -0.01827913945602358     1.8459497446859232E-8    -1.420275157990393
-1.5                      0                        1.4995576773586916       1.83400189011599E-12     0.9347569367061601       -0.01827532407827074     9.263654987429595E-9     -1.4199972649802857
-1.49                     0                        1.4995576773584958       1.7443800297139144E-12   0.934574202430967        -0.018271569365765086    2.4977611549014588E-8    -1.4197194896823147
-1.48                     0                        1.4995576773582988       1.6588440506773187E-12   0.934391506081087        -0.018267722459844395    1.633812469990117E-8     -1.419441679062122
-1.47                     0                        1.4995576773581023       1.5765209094446583E-12   0.934208847731139        -0.01826392500843933     -3.292283609971008E-8    -1.4191639748795353
-1.46                     0                        1.4995576773579073       1.4973138213456265E-12   0.9340262275449014       -0.01826011792491309     1.4977761713005503E-9    -1.4188863182935136
-1.45                     0                        1.499557677357715        1.4210828286679485E-12   0.9338436453190117       -0.018256301848704578    1.1541567696997643E-8    -1.4186087096385436
-1.44                     0                        1.499557677357526        1.3481355310460382E-12   0.9336611013686297       -0.018252496933547354    -4.785251692396356E-9    -1.4183311695409595
-1.43                     0                        1.499557677357341        1.278158654244155E-12    0.9334785954568814       -0.018248685416132917    -3.3465996414944726E-9   -1.418053679882247
-1.42                     0                        1.4995576773571604       1.2109285561877954E-12   0.9332961274976487       -0.01824489572005455     1.9042984711854207E-8    -1.4177762689568607
-1.4100000000000001       0                        1.4995576773569848       1.146441410247652E-12    0.9331136977818697       -0.018241047435731222    -1.2237761562728993E-9   -1.4174988567914992
-1.4                      0                        1.4995576773568147       1.0847458476086397E-12   0.9329313062962692       -0.018237240269089867    1.7394649338435246E-9    -1.4172215430721822
-1.3900000000000001       0                        1.4995576773566501       1.0254164491946872E-12   0.9327489528078141       -0.01823346863128012     4.7855889893088117E-8    -1.4169443218606135
-1.38                     0                        1.4995576773564911       9.690022124295197E-13    0.9325666376797729       -0.01822958780323673     2.2653756310563463E-8    -1.4166670489824695
-1.37                     0                        1.4995576773563382       9.149893457291889E-13    0.9323843606715398       -0.01822577336490038     -1.63547572439109E-8     -1.4163898996568889
-1.3599999999999999       0                        1.4995576773561907       8.632612808732543E-13    0.9322021220644079       -0.01822195666463961     5.201178838252332E-9     -1.4161128056540553
-1.35                     0                        1.4995576773560497       8.137406532234852E-13    0.9320199215497101       -0.018218179998178985    7.645711925691582E-8     -1.41583580880683
-1.3399999999999999       0                        1.499557677355915        7.664530812506867E-13    0.9318377592251533       -0.018214288697506954    3.4975761446883474E-8    -1.4155587545937183
-1.33                     0                        1.499557677355786        7.214033071087037E-13    0.9316556353594871       -0.018210484022973792    -4.215648597172375E-8    -1.4152818446780753
-1.3199999999999998       0                        1.4995576773556631       6.783816411502334E-13    0.9314735497755001       -0.01820664610936006     -3.3607682027400164E-9   -1.4150049589289435
-1.31                     0                        1.4995576773555457       6.373878081255771E-13    0.9312915024301468       -0.018202810267005123    8.008029712006332E-9     -1.4147281325921126
-1.2999999999999998       0                        1.4995576773554342       5.982836983596867E-13    0.9311094935361525       -0.018198977777863702    -5.207442214934374E-9    -1.4144513672685313
-1.29                     0                        1.499557677355328        5.610874199659015E-13    0.9309275229222235       -0.018195149063085142    2.348253959866256E-9     -1.4141746631224836
-1.28                     0                        1.4995576773552282       5.255133672200948E-13    0.9307455906603141       -0.01819129933613652     -1.5308516980281685E-8   -1.4138979954753372
-1.27                     0                        1.4995576773551325       4.91897196122295E-13     0.9305636969322282       -0.018187457278533742    5.161280010494206E-9     -1.4136213932812312
-1.26                     0                        1.4995576773550423       4.597686225816284E-13    0.9303818415847745       -0.018183612212195832    6.43269340619915E-9      -1.4133448456323674
-1.25                     0                        1.499557677354957        4.2923108474524006E-13   0.9302000245466939       -0.01817980355312891     -7.386345158235439E-9    -1.4130683918378932
-1.24                     0                        1.4995576773548764       4.0025505576465675E-13   0.9300182459966123       -0.018175906463180045    -6.927794099564484E-9    -1.4127919073275161
-1.23                     0                        1.499557677354801        3.7284596175625907E-13   0.9298365062267454       -0.018172070497419698    -5.483804828219958E-9    -1.412515542094501
-1.22                     0                        1.4995576773547297       3.4673474339319015E-13   0.9296548048219245       -0.01816821046672127     5.15760879271891E-9      -1.412239210327151
-1.21                     0                        1.499557677354662        3.218397839042388E-13    0.9294731417115609       -0.0181643516966944      4.280252011899689E-8     -1.4119629372452234
-1.2                      0                        1.4995576773545987       2.9843845139489647E-13   0.9292915174459662       -0.018160527604455745    -8.879894507708135E-8    -1.4116867570910592
-1.19                     0                        1.4995576773545392       2.762168956671382E-13    0.9291099316203135       -0.018156664819514067    -8.306333183425028E-9    -1.4114105958871062
-1.18                     0                        1.4995576773544836       2.5511596728698025E-13   0.928928384438487        -0.01815277154580168     2.842818593481918E-9     -1.4111344621430322
-1.17                     0                        1.4995576773544306       2.3520837933227736E-13   0.9287468759970238       -0.01814891549134805     3.315303545615466E-9     -1.4108584237116284
-1.1600000000000001       0                        1.4995576773543817       2.1639645503157241E-13   0.9285654061370453       -0.018145031505565776    7.020865617661213E-8     -1.4105824152040616
-1.15                     0                        1.4995576773543358       1.9857891602811583E-13   0.9283839747855743       -0.01814118002652249     1.372380313987298E-10    -1.4103064969489647
-1.1400000000000001       0                        1.4995576773542927       1.8192755752721437E-13   0.9282025824051277       -0.018137313856585832    9.23752710278121E-9      -1.4100306224422756
-1.13                     0                        1.499557677354252        1.6610180051932912E-13   0.9280212285812102       -0.018133451208043674    -6.455451205789088E-9    -1.4097548092747227
-1.12                     0                        1.4995576773542147       1.51272301331943E-13     0.9278399135084575       -0.018129567725273514    1.558755260827397E-8     -1.4094790333825515
-1.1099999999999999       0                        1.4995576773541797       1.3719951615321246E-13   0.9276586372920685       -0.01812568740682004     -8.819741484959826E-9    -1.4092033189220579
-1.1                      0                        1.4995576773541472       1.2397120742116147E-13   0.9274773998712328       -0.018121796760359205    1.2393795513247264E-8    -1.4089276523097287
-1.0899999999999999       0                        1.499557677354117        1.115395000303961E-13    0.9272962012360101       -0.018117923484518822    3.8494377527895065E-8    -1.408652061229286
-1.08                     0                        1.4995576773540882       9.985583849302304E-14    0.9271150413567143       -0.01811402535613123     1.7216708963926717E-8    -1.408376503413045
-1.0699999999999998       0                        1.499557677354062        8.89350122372874E-14     0.9269339205709659       -0.018110131793529168    1.3924663753012097E-8    -1.4081010087856214
-1.06                     0                        1.4995576773540373       7.882910551195044E-14    0.9267528386825626       -0.01810625004295172     -5.01474999184393E-8     -1.4078255842990361
-1.0499999999999998       0                        1.4995576773540147       6.930028465204742E-14    0.9265717955913391       -0.01810235977791763     -8.086190814924733E-10   -1.407550209476605
-1.04                     0                        1.4995576773539936       6.034232510214464E-14    0.9263907916159838       -0.01809843529305234     -1.926185020747696E-9    -1.4072748590908446
-1.03                     0                        1.4995576773539738       5.208450366200047E-14    0.9262098265444376       -0.01809455463494497     1.8237420983218267E-8    -1.4069996108703489
-1.02                     0                        1.4995576773539556       4.426111378967231E-14    0.9260289004832823       -0.018090643736897696    4.4852692866629955E-9    -1.4067243909082459
-1.01                     0                        1.4995576773539392       3.6963072362313966E-14   0.9258480135622602       -0.018086742756485568    -7.040384283670536E-9    -1.4064492395566668
-1                        0                        1.4995576773539232       3.029874294671581E-14    0.925667165649608        -0.018082859387736776    1.724839675536884E-8     -1.4061741643120522
-0.99                     0                        1.4995576773539094       2.3925141418013503E-14   0.9254863567515349       -0.01807891741958446     -4.088953168688985E-9    -1.405899088972648
-0.98                     0                        1.4995576773538954       1.8193779447356977E-14   0.9253055872467006       -0.018075003566761488    -8.253186150415997E-10   -1.405624100821006
-0.97                     0                        1.4995576773538832       1.2780995121085808E-14   0.9251248568099497       -0.018071083783429552    -9.461719736429167E-9    -1.4053491653237016
-0.96                     0                        1.4995576773538721       7.822253724254986E-15    0.9249441654177487       -0.01806718074109026     -2.327898578911186E-8    -1.4050743051169454
-0.95                     0                        1.4995576773538621       3.3229430393705396E-15   0.9247635134507912       -0.018063264757225916    6.843174973173003E-8     -1.4047994910890913
-0.94                     0                        1.4995576773538521       -8.919805051680913E-16   0.9245829006463295       -0.01805929613510669     9.174711228312865E-9     -1.404524683149404
-0.9299999999999999       0                        1.4995576773538435       -4.7958412508440425E-15  0.9244023272999248       -0.018055369322200452    8.293203392501858E-9     -1.4042499761885632
-0.9199999999999999       0                        1.4995576773538353       -8.347446822089959E-15   0.9242217931307307       -0.01805143053395582     -2.5741708933840172E-8   -1.4039753160008712
-0.9099999999999999       0                        1.499557677353828        -1.1584719478160527E-14  0.9240412983740398       -0.01804750178110902     7.473872288882855E-9     -1.4037007249498996
-0.8999999999999999       0                        1.4995576773538213       -1.4559041050212034E-14  0.9238608430988859       -0.01804356068319874     5.379343999214463E-10    -1.4034261807587074
-0.8899999999999999       0                        1.4995576773538144       -1.728485884113933E-14   0.9236804271041654       -0.018039641234216076    1.5415728686172867E-8    -1.4031517171197176
-0.8799999999999999       0                        1.4995576773538088       -1.968120721041915E-14   0.9235000506592965       -0.018035662288139874    4.975505816848533E-9     -1.4028772532909195
-0.8699999999999999       0                        1.4995576773538033       -2.191363853982348E-14   0.9233197138130526       -0.01803170696063681     4.138882233612109E-9     -1.4026028724611164
-0.8599999999999999       0                        1.4995576773537984       -2.3869570834366784E-14  0.9231394163383626       -0.018027777018941205    -3.168655751768324E-8    -1.4023285760570374
-0.8499999999999999       0                        1.4995576773537944       -2.5600633153310446E-14  0.9229591584829189       -0.018023794069816065    -1.0392661259176063E-8   -1.4020542860568745
-0.8400000000000001       0                        1.4995576773537902       -2.723110132031856E-14   0.9227789402044124       -0.018019847668459214    4.2899998648397275E-9    -1.40178009195238
-0.8300000000000001       0                        1.4995576773537866       -2.86375149238626E-14    0.9225987616513125       -0.018015862951525467    -1.1678660629757825E-9   -1.4015059191028474
-0.8200000000000001       0                        1.499557677353783        -2.9907151082127454E-14  0.92241862277177         -0.01801192259444225     -7.463155966277938E-9    -1.401231850105953
-0.81                     0                        1.4995576773537806       -3.0948312077917645E-14  0.9222385234889074       -0.01800793047651183     1.944092461460132E-8     -1.4009577887257179
-0.8                      0                        1.4995576773537775       -3.1913543359654775E-14  0.922058464212034        -0.018003924898186464    3.5768849448759173E-9    -1.4006837738763753
-0.79                     0                        1.499557677353775        -3.273204700086718E-14   0.9218784446522323       -0.017999968377968363    1.9891534879689895E-9    -1.4004098676431807
-0.78                     0                        1.4995576773537729       -3.3386361803640507E-14  0.9216984648860677       -0.017995984854953642    1.3483893736252578E-8    -1.400135994080043
-0.77                     0                        1.4995576773537709       -3.392868935328105E-14   0.9215185248344351       -0.01799198888051737     1.7160856367156947E-8    -1.399862167619716
-0.76                     0                        1.4995576773537687       -3.4343150230122246E-14  0.9213386248004053       -0.017988012256480668    -4.484842266176247E-8    -1.3995884205184916
-0.75                     0                        1.4995576773537673       -3.463917297442474E-14   0.9211587647874924       -0.017984001343236963    -1.301482024026401E-9    -1.3993146991420342
-0.74                     0                        1.4995576773537656       -3.493351613050184E-14   0.9209789447636311       -0.01798001837737976     4.5755758275055254E-8    -1.3990410656788523
-0.73                     0                        1.4995576773537644       -3.503286210592222E-14   0.9207991647290192       -0.017975988545070286    3.7092050235021706E-9    -1.3987674453154046
-0.72                     0                        1.4995576773537633       -3.5073047554655975E-14  0.9206194248187886       -0.017971986919891655    -7.680569407882703E-9    -1.3984939133279117
-0.71                     0                        1.499557677353762        -3.5026475005840544E-14  0.9204397249521229       -0.017967980246002508    -2.6408214591871478E-8   -1.3982204363393433
-0.7                      0                        1.4995576773537609       -3.486261364531489E-14   0.9202600651949481       -0.017963964619718636    1.064407111654953E-8     -1.3979470105448757
-0.69                     0                        1.49955767735376         -3.461497309260025E-14   0.9200804458066282       -0.017959913044252075    -2.3284399618261303E-9   -1.3976736093366515
-0.6799999999999999       0                        1.499557677353759        -3.4360758340196493E-14  0.9199008666719393       -0.017955901625560877    2.904966364652783E-9     -1.3974003086478441
-0.6699999999999999       0                        1.4995576773537587       -3.407168992212123E-14   0.9197213276865169       -0.017951921828714888    6.324115033184115E-8     -1.3971270997870235
-0.6599999999999999       0                        1.4995576773537582       -3.3661541513204536E-14  0.919541829092723        -0.0179478261694286      3.942311168068348E-8     -1.3968538356333386
-0.6499999999999999       0                        1.4995576773537576       -3.3228876640576936E-14  0.9193623708183662       -0.01794379127788187     -3.441064026435086E-8    -1.3965806927087152
-0.6399999999999999       0                        1.4995576773537571       -3.273345265229392E-14   0.9191829531243653       -0.01793976567757545     -5.1363652739353316E-9   -1.396307619927916
-0.6299999999999999       0                        1.4995576773537567       -3.222990168564586E-14   0.9190035757840165       -0.017935702333169327    1.1911888346494286E-9    -1.3960345699156462
-0.6199999999999999       0                        1.4995576773537564       -3.177323507805396E-14   0.9188242390665693       -0.017931641156276396    2.08124895299982E-9      -1.3957615829872738
-0.6099999999999999       0                        1.4995576773537562       -3.120465695974552E-14   0.9186449427773984       -0.017927582321211714    -5.860836910906386E-8    -1.3954886590252615
-0.5999999999999999       0                        1.4995576773537558       -3.058379912655467E-14   0.9184656871837881       -0.017923526429614183    2.5695231016739277E-8    -1.3952157990320566
-0.5900000000000001       0                        1.4995576773537551       -2.998731806707294E-14   0.9182864722082886       -0.01791947015387865     -3.125344644483245E-8    -1.3949429995639135
-0.5800000000000001       0                        1.4995576773537553       -2.950274113188237E-14   0.9181072980153371       -0.017915381912041898    -4.063674909808927E-9    -1.394670229285453
-0.5700000000000001       0                        1.499557677353755        -2.894885598997855E-14   0.9179281645852171       -0.01791130411195238     1.3561471057513743E-8    -1.3943975305749556
-0.56                     0                        1.4995576773537551       -2.8247630424740518E-14  0.917749071850721        -0.017907224806213217    2.0455179546851344E-8    -1.394124891384245
-0.55                     0                        1.4995576773537553       -2.766818660037868E-14   0.9175700200886361       -0.017903128923342927    -5.388687953464865E-9    -1.3938522970568967
-0.54                     0                        1.4995576773537547       -2.702723862233471E-14   0.9173910091587637       -0.017899029589250926    -1.98961824870426E-8     -1.3935797605085838
-0.53                     0                        1.4995576773537547       -2.6372167884957612E-14  0.9172120393248473       -0.017894942833092224    1.0948384102006E-8       -1.393307298163961
-0.52                     0                        1.4995576773537547       -2.5685476101752435E-14  0.9170331104167079       -0.017890831451332894    6.739436583061721E-9     -1.3930348725643005
-0.51                     0                        1.4995576773537547       -2.503848419084293E-14   0.91685422271982         -0.01788670792623124     -1.5539642658228844E-8   -1.3927624966199466