% Model:              C1noStruct.mph
% Version:            COMSOL 5.6.0.280
% Date:               Apr 15 2021, 09:31
% Dimension:          2
% Nodes:              10201
% Expressions:        6
% Description:        Velocity field, x component, Velocity field, y component, Concentration, Gradient of c, x component, Gradient of c, y component, 
% Length unit:        m
% x                       y                        u (m/s)                  v (m/s)                  c (mol/m^3)              cx (mol/m^4)             cy (mol/m^4)             -u*c+cx
-0.5                      -0.5                     3.4912801961961273E-16   1.2457172429342845E-30   0.913831775348823        -0.01782514371886963     0.00913835656062681      -0.017825143718869948
-0.49                     -0.5                     3.1985378367355613E-17   -4.511092066027594E-31   0.9136535445460007       -0.017821015908902584    0.009136574229295353     -0.017821015908902612
-0.48                     -0.5                     3.0170222798152483E-16   -2.245751094503494E-30   0.9134753550499161       -0.017816882264281794    0.009134792305237623     -0.017816882264282068
-0.47                     -0.5                     2.8627043397956226E-16   3.2392212522010925E-31   0.9132972069187087       -0.01781274299661082     0.009133010779064872     -0.01781274299661108
-0.46                     -0.5                     1.2073118277746336E-16   4.470369191847343E-32    0.9131191002096639       -0.017808597701430708    0.009131229593764086     -0.01780859770143082
-0.45                     -0.5                     3.336990035399152E-16    3.3902433823645645E-30   0.9129410349837186       -0.017804446530238046    0.009129448762915075     -0.01780444653023835
-0.44                     -0.5                     -2.264169604725328E-16   -3.5874381323485564E-30  0.9127630112983867       -0.01780028945307517     0.009127668291988938     -0.017800289453074963
-0.43                     -0.5                     -5.5033285615553894E-17  -1.647820824938521E-31   0.9125850292140084       -0.017796126364665467    0.009125888200658412     -0.01779612636466542
-0.42                     -0.5                     1.3032834898713205E-16   -9.063731411335429E-32   0.9124070887911884       -0.017791957055230234    0.009124108569199745     -0.017791957055230352
-0.41000000000000003      -0.5                     2.740729154689202E-18    5.421210141667558E-33    0.9122291900928564       -0.017787781592515605    0.009122329490015417     -0.01778778159251561
-0.4                      -0.5                     9.597327356708608E-17    3.959212145370329E-31    0.9120513331794865       -0.017783599930461098    0.00912055094984983      -0.017783599930461184
-0.39                     -0.5                     -5.766393514311166E-17   -1.6066880782103832E-32  0.9118735181148107       -0.0177794119104324      0.00911877289474823      -0.01777941191043235
-0.38                     -0.5                     1.1959770819733707E-16   -1.1169498577574564E-30  0.9116957449618747       -0.017775217499758314    0.009116995250561082     -0.01777521749975842
-0.37                     -0.5                     -2.7519970070564103E-16  -9.529467420714409E-31   0.9115180137858221       -0.017771016650302934    0.009115218000921318     -0.017771016650302684
-0.36                     -0.5                     -4.901715726953897E-16   -3.214061945190219E-30   0.9113403246501217       -0.01776680925675368     0.009113441150356977     -0.01776680925675323
-0.35                     -0.5                     9.776620625610248E-17    1.959484847782966E-30    0.9111626776226419       -0.017762595109659288    0.009111664675848365     -0.017762595109659378
-0.33999999999999997      -0.5                     -1.4864117024211134E-16  -2.3419669015643637E-30  0.9109850727687544       -0.017758374450279585    0.00910988858253871      -0.01775837445027945
-0.32999999999999996      -0.5                     1.113774620163624E-16    5.715092586392438E-31    0.9108075101561519       -0.017754146942757888    0.009108112875032178     -0.017754146942757988
-0.32                     -0.5                     -2.8027896759012157E-16  1.4380864190174624E-30   0.9106299898517486       -0.017749912667376917    0.009106337603430829     -0.01774991266737666
-0.31                     -0.5                     -1.7854711870409773E-16  1.21135812628429E-30     0.9104525119260312       -0.01774567129483006     0.009104562787487037     -0.017745671294829898
-0.3                      -0.5                     2.9114392867437833E-16   -1.09221067310575E-30    0.9102750764475838       -0.017741423126266823    0.009102788419774705     -0.017741423126267086
-0.29000000000000004      -0.5                     2.2661197466454734E-16   -7.075122078211338E-31   0.9100976834875935       -0.017737167710718385    0.009101014482936053     -0.01773716771071859
-0.28                     -0.5                     -2.4740758435971164E-17  8.228454173196902E-32    0.9099203331157294       -0.01773290533312425     0.009099241032460332     -0.01773290533312423
-0.27                     -0.5                     5.672520943438248E-16    2.0408939934633068E-30   0.9097430254060829       -0.01772863538610248     0.009097468072230845     -0.017728635386102996
-0.26                     -0.5                     2.7565143301429504E-18   1.2847218350005785E-32   0.9095657604300833       -0.017724358510524865    0.009095695494969308     -0.017724358510524868
-0.25                     -0.5                     2.3273062903433823E-16   2.9872041837455936E-31   0.9093885382616169       -0.017720073953646123    0.009093923196979499     -0.017720073953646335
-0.24                     -0.5                     1.677860571680821E-16    6.3695698404311375E-31   0.9092113589741909       -0.01771578218438258     0.009092151298726807     -0.017715782184382734
-0.22999999999999998      -0.5                     2.364585066775283E-16    6.380937386509854E-31    0.9090342226442375       -0.01771148253976329     0.009090379893099909     -0.017711482539763505
-0.21999999999999997      -0.5                     8.385579424608455E-17    5.522456669710985E-31    0.908857129346928        -0.01770717554558297     0.00908860895172188      -0.017707175545583046
-0.21000000000000002      -0.5                     1.3605095381189882E-16   -1.2997059127916562E-30  0.908680079160997        -0.017702860405019817    0.009086838412321286     -0.017702860405019942
-0.2                      -0.5                     -1.8397523716822446E-16  1.096590796641626E-30    0.9085030721623745       -0.017698537942188085    0.009085068266965228     -0.017698537942187918
-0.19                     -0.5                     6.170621704894255E-17    1.0271355349381475E-31   0.908326108430661        -0.017694207079869427    0.009083298523354051     -0.017694207079869483
-0.18                     -0.5                     3.124177301883344E-16    -7.601544599477303E-31   0.9081491880449234       -0.017689868678989706    0.009081529260221726     -0.01768986867898999
-0.16999999999999998      -0.5                     -2.384555244694881E-16   -3.7259486837645646E-30  0.9079723110863277       -0.017685521748775232    0.009079760485596706     -0.017685521748775017
-0.15999999999999998      -0.5                     -4.93696318763639E-16    -5.2243420985036836E-30  0.9077954776346583       -0.017681167164445285    0.009077992197363825     -0.017681167164444837
-0.14999999999999997      -0.5                     8.375192232000475E-17    -8.585089820277035E-31   0.9076186877730047       -0.017676803826210834    0.009076224371043353     -0.01767680382621091
-0.14                     -0.5                     -2.2001647924622165E-17  1.2696089993786716E-31   0.9074419415831521       -0.017672432715799703    0.009074457019247988     -0.017672432715799682
-0.13                     -0.5                     1.2668560152855529E-16   3.9242783536467826E-32   0.9072652391509599       -0.01766805237440528     0.009072690082255997     -0.017668052374405396
-0.12                     -0.5                     9.643780937164162E-18    -7.32766986483228E-32    0.9070885805610535       -0.01766366418699899     0.009070923525920808     -0.017663664186999
-0.10999999999999999      -0.5                     5.645161011310886E-17    -2.041536881525391E-32   0.9069119658991907       -0.017659266807752833    0.009069157313953644     -0.017659266807752885
-0.09999999999999998      -0.5                     4.954436473509156E-17    2.388903473789954E-31    0.9067353952507891       -0.017654861438470795    0.009067391558699366     -0.01765486143847084
-0.08999999999999997      -0.5                     -3.195324994824162E-16   6.04115537860666E-31     0.9065588687043156       -0.017650446451005865    0.009065626324898846     -0.017650446451005577
-0.08000000000000002      -0.5                     -2.0404445291023367E-16  -5.746074511881994E-32   0.9063823863488226       -0.01764602316233792     0.00906386155322308      -0.017646023162337737
-0.07                     -0.5                     -2.782209469150755E-16   6.011930535793998E-31    0.906205948275208        -0.017641590157150486    0.009062097064802987     -0.017641590157150232
-0.06                     -0.5                     1.7822779236582146E-17   -6.840202305700504E-32   0.9060295545724537       -0.017637148910734264    0.009060332746087512     -0.01763714891073428
-0.04999999999999999      -0.5                     8.549252990162001E-17    -3.0026318654266747E-31  0.9058532053328752       -0.017632697575191925    0.009058568460361524     -0.017632697575192
-0.03999999999999998      -0.5                     2.0446742395761534E-16   6.144005526223501E-31    0.9056769006487243       -0.017628237717191568    0.00905680426678995      -0.017628237717191752
-0.02999999999999997      -0.5                     2.692251350498525E-16    -4.643893581264784E-33   0.9055006406146716       -0.01762376763074195     0.009055040085909698     -0.017623767630742193
-0.020000000000000018     -0.5                     3.7575125814794995E-16   -4.1898935908055735E-30  0.9053244253256136       -0.017619288224209034    0.009053276233422993     -0.017619288224209374
-0.010000000000000009     -0.5                     -2.395455408006219E-16   -3.3562961947396103E-31  0.9051482548821974       -0.017614801155210278    0.009051517042621792     -0.017614801155210063
0                         -0.5                     -6.648269453074719E-16   -1.5548157244271108E-30  0.9049721291544849       -0.017610190026831313    0.009049916447796146     -0.017610190026830713
0.010000000000000009      -0.5                     -2.440171421898819E-17   -1.264505129975427E-31   0.9047960488871629       -0.01760579135399138     0.009047993984214003     -0.01760579135399136
0.020000000000000018      -0.5                     1.3728012134548948E-16   -2.215977963250223E-31   0.904620013534602        -0.01760127539198721     0.009046232614458815     -0.017601275391987335
0.030000000000000027      -0.5                     -1.2989145383769723E-16  -1.4567611586115538E-30  0.9044440234189258       -0.017596746366563228    0.009044474778081815     -0.01759674636656311
0.040000000000000036      -0.5                     -1.3345799760269074E-17  -1.103920045642826E-34   0.9042680786382293       -0.01759220810703812     0.009042715886036636     -0.01759220810703811
0.050000000000000044      -0.5                     -9.762347788549006E-17   -1.3969368815092498E-31  0.9040921792963151       -0.01758765867605581     0.009040958050991773     -0.017587658676055724
0.06000000000000005       -0.5                     -3.505308936774301E-16   3.9040060546754143E-31   0.9039163254950104       -0.017583099995956017    0.009039200274446872     -0.0175830999959557
0.07000000000000006       -0.5                     -2.6106143289864887E-16  -3.5650987868764085E-31  0.9037405173374722       -0.01757852981556323     0.009037442463657978     -0.017578529815562995
0.07999999999999996       -0.5                     -2.0658470552358955E-16  -3.005880683215947E-31   0.903564754930429        -0.017573949930009318    0.009035685037080672     -0.01757394993000913
0.08999999999999997       -0.5                     1.0204205161246243E-16   9.5298193677634E-31      0.9033890383807289       -0.017569358254528152    0.009033927964223054     -0.017569358254528246
0.09999999999999998       -0.5                     2.34430656087306E-16     -7.328665301750753E-31   0.9032133677976927       -0.017564756666898884    0.009032171265292403     -0.017564756666899096
0.10999999999999999       -0.5                     -2.6440723255655225E-16  6.519943710010974E-31    0.9030377432890824       -0.01756014327989726     0.009030414904909786     -0.01756014327989702
0.12                      -0.5                     -1.4023286516245211E-16  2.3368562184686984E-31   0.902862164964887        -0.01755551979622223     0.009028658994319733     -0.017555519796222104
0.13                      -0.5                     -1.813343601522816E-16   3.038390720470675E-31    0.9026866329359584       -0.017550884100036024    0.00902690359968988      -0.01755088410003586
0.14                      -0.5                     9.893534511984496E-17    -8.415488016942041E-31   0.9025111473169458       -0.01754623790870309     0.009025148758759515     -0.01754623790870318
0.15000000000000002       -0.5                     7.702508422325472E-17    2.495550103311592E-31    0.9023357082205049       -0.017541579456597702    0.009023394425327083     -0.01754157945659777
0.16000000000000003       -0.5                     -4.986201310949638E-16   -2.952066805976677E-31   0.9021603157621472       -0.01753691036602505     0.00902164060268636      -0.0175369103660246
0.17000000000000004       -0.5                     9.798240657931503E-17    5.419217233886994E-31    0.9019849700565178       -0.01753222872850082     0.009019887273419753     -0.017532228728500906
0.18000000000000005       -0.5                     -3.732447555364747E-16   1.4405300824042755E-30   0.9018096712235875       -0.017527535943570722    0.009018134408296102     -0.017527535943570385
0.19000000000000006       -0.5                     3.2352768932414976E-16   2.632123097706072E-30    0.9016344193809213       -0.017522830521697157    0.009016381885279267     -0.01752283052169745
0.20000000000000007       -0.5                     1.1044550675333785E-17   1.921896941356571E-32    0.9014592146496142       -0.01751811374786875     0.009014629721980071     -0.017518113747868762
0.20999999999999996       -0.5                     -2.811306452017235E-16   1.1308372765938582E-30   0.9012840571503522       -0.017513383964592087    0.009012877997876815     -0.017513383964591834
0.21999999999999997       -0.5                     1.4458170565453464E-16   2.007751168895133E-31    0.9011089470076948       -0.017508642552020746    0.009011126829956553     -0.01750864255202088
0.22999999999999998       -0.5                     1.0879649260082031E-16   2.6905241813233002E-31   0.9009338843439472       -0.017503887980052722    0.009009376200610536     -0.01750388798005282
0.24                      -0.5                     2.479342409917886E-16    5.044578845692876E-32    0.9007588692862996       -0.017499121490777304    0.009007626056676862     -0.017499121490777526
0.25                      -0.5                     -3.0849283755285747E-16  1.0487472583034997E-30   0.9005839019590156       -0.01749434167659165     0.00900587635777067      -0.017494341676591373
0.26                      -0.5                     -6.447310579178003E-16   -8.988398265443959E-31   0.9004089824925168       -0.01748954948749519     0.009004127179502257     -0.01748954948749461
0.27                      -0.5                     2.8946947367854226E-17   1.6663233649554783E-31   0.9002341110148074       -0.017484743695846922    0.009002378493642271     -0.01748474369584695
0.28                      -0.5                     3.035759022732722E-17    -8.444633869668869E-32   0.9000592876588839       -0.01747992531395782     0.009000630332147465     -0.017479925313957846
0.29000000000000004       -0.5                     6.9071300216641635E-18   -9.808181721612204E-33   0.8998845125545208       -0.017475093143684912    0.008998882651695858     -0.01747509314368492
0.30000000000000004       -0.5                     7.049551153648552E-17    1.9758735168342792E-31   0.8997097858374421       -0.01747024804588968     0.008997135421985764     -0.017470248045889744
0.31000000000000005       -0.5                     1.991525860597272E-16    -1.9427370173771303E-30  0.8995351076401021       -0.017465388941162268    0.008995388667524095     -0.01746538894116245
0.32000000000000006       -0.5                     2.367568141115171E-16    8.314472886984274E-32    0.8993604781013255       -0.017460516517199275    0.008993642447677093     -0.017460516517199487
0.33000000000000007       -0.5                     6.518029376916691E-17    3.260955812688351E-31    0.8991858973568649       -0.017455629804946294    0.008991896750988809     -0.017455629804946353
0.33999999999999997       -0.5                     -6.940525141956423E-17   8.856809217803983E-32    0.8990113655496217       -0.017450729275545147    0.008990151494437146     -0.017450729275545085
0.35                      -0.5                     3.0266018634536977E-16   5.266344992342638E-31    0.8988368828192501       -0.01744581419579219     0.00898840666820325      -0.01744581419579246
0.36                      -0.5                     5.270952373563739E-17    -3.5306238185500057E-31  0.8986624493103547       -0.017440885192018404    0.008986662255624342     -0.017440885192018453
0.37                      -0.5                     4.1111288154199283E-16   3.893369053471938E-30    0.8984880651634565       -0.01743594150221759     0.00898491824571261      -0.017435941502217958
0.38                      -0.5                     4.626131853688069E-16    -2.54999393778832E-30    0.8983137305269203       -0.01743098335695527     0.008983174711361544     -0.017430983356955688
0.39                      -0.5                     9.375465435495616E-17    -8.959531947079374E-31   0.8981394455450732       -0.017426010260368264    0.008981431731984929     -0.017426010260368347
0.4                       -0.5                     -1.1021447777178022E-17  -1.1294195067904014E-32  0.8979652103697915       -0.01742102226164204     0.008979689313200173     -0.01742102226164203
0.41000000000000003       -0.5                     -1.404401073525789E-16   -1.3370802770925102E-30  0.8977910251493658       -0.017416019011157198    0.008977947405726177     -0.017416019011157073
0.42000000000000004       -0.5                     -1.1281691465267245E-16  6.198261345152697E-31    0.8976168900389294       -0.017411000520683624    0.008976205987291845     -0.017411000520683523
0.43000000000000005       -0.5                     -5.771622257571051E-16   2.2316967141505226E-30   0.8974428051886649       -0.01740596666254942     0.008974465041099534     -0.017405966662548903
0.44000000000000006       -0.5                     -2.2779124774005814E-16  -5.099478001426191E-30   0.8972687707564054       -0.01740091714930271     0.0089727245803336       -0.017400917149302506
0.45000000000000007       -0.5                     1.850119244290647E-16    -7.315405223757138E-32   0.8970947868964435       -0.017395851929008298    0.00897098463564137      -0.017395851929008464
0.45999999999999996       -0.5                     5.3445735559484956E-17   2.9052795583230573E-31   0.8969208537698897       -0.01739077071531799     0.008969245290020201     -0.017390770715318037
0.47                      -0.5                     -6.090900690160904E-16   1.7960747757456852E-30   0.8967469715336164       -0.017385673537030577    0.008967506534289143     -0.017385673537030032
0.48                      -0.5                     -1.7583164636989477E-16  -8.57485149777563E-31    0.8965731403531338       -0.017380559825532486    0.008965768310831691     -0.01738055982553233
0.49                      -0.5                     7.016373163683315E-17    2.0003691429936132E-32   0.8963993603891687       -0.017375429927566483    0.008964030613195308     -0.017375429927566546
0.5                       -0.5                     3.4565926645396823E-16   -4.967505395390489E-30   0.8962256318104854       -0.01737028302214312     0.008962293388263062     -0.01737028302214343
-0.5                      -0.49                    0.0593824840232074       1.513330350529707E-16    0.9139231201451852       -0.0178269314016207      0.009128884920818845     -0.07209795648208202
-0.49                     -0.49                    0.05938248402320743      -1.648039531604867E-17   0.9137448714979606       -0.01782279795633244     0.009127101379803245     -0.07208323818934781
-0.48                     -0.49                    0.05938248402320744      1.1034952978529231E-16   0.9135666641559828       -0.017818670070440717    0.009125313851230088     -0.07206852790881829
-0.47                     -0.49                    0.059382484023207636     -8.967093481268264E-17   0.9133884981858238       -0.0178145252656623      0.00912352466068225      -0.0720538031661636
-0.46                     -0.49                    0.059382484023207734     -2.516122498900933E-16   0.9132103736416716       -0.017810383803064656    0.009121747333840718     -0.07203908422566879
-0.45                     -0.49                    0.05938248402320776      -1.4230076702618177E-16  0.9130322905808415       -0.01780622873439763     0.009119951989982595     -0.07202435414248723
-0.44                     -0.49                    0.059382484023207845     -1.6006282543754815E-16  0.9128542490692958       -0.017802074413615854    0.009118172559659235     -0.0720096272744907
-0.43                     -0.49                    0.059382484023207706     3.5379838002511397E-16   0.9126762491631206       -0.017797907168154593    0.00911640006291949      -0.07199488995244474
-0.42                     -0.49                    0.05938248402320778      -2.1592917012025668E-16  0.9124982909145921       -0.017793740184937318    0.00911460616347237      -0.07198015536637749
-0.41000000000000003      -0.49                    0.05938248402320793      -1.8691649328906535E-16  0.9123203744036364       -0.017789559232810254    0.009112830711379487     -0.07196540928988127
-0.4                      -0.49                    0.05938248402320783      4.754867851751771E-17    0.9121424996774345       -0.017785383952596715    0.009111045021285262     -0.07195067136658083
-0.39                     -0.49                    0.05938248402320784      6.544883228208742E-18    0.9119646668009149       -0.01778119069148037     0.009109255520585648     -0.07193591794751575
-0.38                     -0.49                    0.05938248402320794      -4.158850863655885E-17   0.9117868758481126       -0.01777699975402934     0.00910748337424631      -0.07192116934165058
-0.37                     -0.49                    0.05938248402320794      9.86818312187864E-18     0.9116091268642649       -0.017772796351427082    0.009105685785038524     -0.07190641076285484
-0.36                     -0.49                    0.05938248402320795      1.116232024378426E-16    0.911431419931622        -0.017768590735908214    0.009103904159145146     -0.0718916524682475
-0.35                     -0.49                    0.059382484023208164     -3.528182990892576E-16   0.9112537551120079       -0.017764371987763546    0.009102131852700247     -0.07187688354179081
-0.33999999999999997      -0.49                    0.05938248402320812      5.827129295137892E-17    0.9110761324665263       -0.017760154031167336    0.00910034125313215      -0.07186211791128708
-0.32999999999999996      -0.49                    0.05938248402320814      1.2127414547785929E-16   0.9108985520689689       -0.01775592099372436     0.009098568819508358     -0.07184733970872334
-0.32                     -0.49                    0.05938248402320824      -1.6097655472021345E-16  0.910721013984945        -0.01775169291452247     0.009096788639889273     -0.07183256897708348
-0.31                     -0.49                    0.05938248402320827      1.5772360412400114E-16   0.9105435182770281       -0.017747446304715593    0.009095004042147735     -0.07181778223123705
-0.3                      -0.49                    0.05938248402320834      4.475943666743498E-17    0.910366065031918        -0.017743201150151756    0.009093235404805276     -0.07180299946218066
-0.29000000000000004      -0.49                    0.05938248402320853      -1.7838345734969216E-16  0.9101886542951331       -0.017738942553419526    0.009091446492252457     -0.07178820577520595
-0.28                     -0.49                    0.05938248402320862      -2.0508732954962174E-16  0.9100112861572646       -0.017734683096139493    0.009089665949572709     -0.07177341375731278
-0.27                     -0.49                    0.05938248402320855      1.0476237885965462E-16   0.9098339606854173       -0.017730409175066988    0.009087893711918801     -0.07175860980924134
-0.26                     -0.49                    0.0593824840232086       1.6168989616161079E-16   0.9096566779500641       -0.017726134372307707    0.009086107183649168     -0.0717438075172824
-0.25                     -0.49                    0.05938248402320846      -1.5034845734240726E-16  0.9094794380277582       -0.017721844824835294    0.009084340128987118     -0.07172899302295525
-0.24                     -0.49                    0.05938248402320847      4.852442458623048E-17    0.9093022409905541       -0.017717559412874916    0.009082557102413076     -0.07171418521076416
-0.22999999999999998      -0.49                    0.0593824840232086       -1.9381630472922992E-16  0.9091250869066546       -0.017713254939178233    0.00908076990517409      -0.07169936088751078
-0.21999999999999997      -0.49                    0.05938248402320865      9.242560055279497E-17    0.9089479758720003       -0.017708950261795798    0.009079001167926355     -0.0716845389169427
-0.21000000000000002      -0.49                    0.05938248402320861      9.487208707430605E-17    0.9087709079400514       -0.017704632708570672    0.009077215301383506     -0.07166970663007756
-0.2                      -0.49                    0.05938248402320858      -5.949073030119046E-17   0.908593883210701        -0.017700312069813595    0.009075444529319418     -0.07165487382315809
-0.19                     -0.49                    0.05938248402320853      -9.672802935746284E-18   0.9084169017475455       -0.017695977844044183    0.009073680152136318     -0.0716400299984804
-0.18                     -0.49                    0.05938248402320857      1.0560808834957883E-16   0.908239963631396        -0.01769164176372342     0.009071891785995273     -0.07162518689330433
-0.16999999999999998      -0.49                    0.05938248402320858      1.4203730445850211E-16   0.9080630689463894       -0.01768728902010877     0.009070119522667406     -0.0716103297038835
-0.15999999999999998      -0.49                    0.059382484023208525     -6.420524361480383E-17   0.9078862177804482       -0.0176829403350582      0.009068344946121434     -0.07159547915729689
-0.14999999999999997      -0.49                    0.05938248402320862      -9.534758316977755E-17   0.9077094101969824       -0.01767857203123765     0.009066564752482117     -0.07158061157997608
-0.14                     -0.49                    0.059382484023208636     1.8693932191608547E-17   0.9075326463037691       -0.01767420368886097     0.009064799907558124     -0.07156574655853479
-0.13                     -0.49                    0.05938248402320857      -3.302406766510141E-18   0.9073559261539065       -0.017669820007573788    0.00906301604813766      -0.07155086879577176
-0.12                     -0.49                    0.05938248402320859      5.222676924000904E-17    0.907179249865141        -0.017665434644555677    0.0090612434499876       -0.07153599195585876
-0.10999999999999999      -0.49                    0.05938248402320853      -1.1905226698001907E-16  0.9070026175028381       -0.01766103424588505     0.00905948035047604      -0.07152110268875565
-0.09999999999999998      -0.49                    0.05938248402320861      1.0128986349354559E-16   0.9068260291576251       -0.017656631485130254    0.009057696599519572     -0.07150621367341263
-0.08999999999999997      -0.49                    0.0593824840232087       -2.6304445576037535E-16  0.9066494849126643       -0.017652211336521093    0.009055922474561665     -0.07149130988899778
-0.08000000000000002      -0.49                    0.05938248402320865      2.435864308412782E-16    0.906472984872923        -0.01764779296594001     0.009054148511241998     -0.07147641050762663
-0.07                     -0.49                    0.05938248402320871      6.847781409570358E-17    0.9062965291089627       -0.017643355296621355    0.009052370873843805     -0.07146149445672384
-0.06                     -0.49                    0.0593824840232087       -1.478971442752673E-16   0.906120117736294        -0.017638916894512566    0.009050615866584538     -0.07144658030909604
-0.04999999999999999      -0.49                    0.0593824840232088       1.3407247663721224E-18   0.9059437508114767       -0.01763446269299705     0.00904884195191901      -0.07143165300148542
-0.03999999999999998      -0.49                    0.05938248402320877      4.9276694182626814E-17   0.9057674284595882       -0.01763000596994172     0.00904708070531213      -0.07141672581918611
-0.02999999999999997      -0.49                    0.05938248402320872      7.210735795899701E-17    0.9055911507695438       -0.01762552591163369     0.009045347017088834     -0.07140177795376532