% Model:              C1noStruct.mph
% Version:            COMSOL 5.6.0.280
% Date:               Apr 15 2021, 09:31
% Dimension:          2
% Nodes:              1001
% Expressions:        6
% Description:        Velocity field, x component, Velocity field, y component, Concentration, Gradient of c, x component, Gradient of c, y component, 
% Length unit:        m
% x                       y                        u (m/s)                  v (m/s)                  c (mol/m^3)              cx (mol/m^4)             cy (mol/m^4)             -u*c+cx
0                         -0.5                     -6.648269453074719E-16   -1.5548157244271108E-30  0.9049721291544849       -0.017610190026831313    0.009049916447796146     -0.017610190026830713
0                         -0.499                   0.0059922324787061365    -3.1887240219444793E-17  0.9049811789953576       -0.017610582455216826    0.009049418344541005     -0.023033440068610578
0                         -0.498                   0.011972468495992358     -6.499367613575843E-17   0.9049902279911743       -0.017610657748828765    0.009048573289115923     -0.02844562474263404
0                         -0.497                   0.01794070805185988      -9.931930774894736E-17   0.9049992761419354       -0.017610764252726542    0.009047728233543306     -0.03384709205313353
0                         -0.496                   0.023896951146309357     -1.3486413505901568E-16  0.9050083234476411       -0.017610903447635273    0.009046883178035986     -0.03923784314006689
0                         -0.495                   0.029841197779339648     -1.716281580659567E-16   0.9050173699082915       -0.017611076910619708    0.009046038122579451     -0.044617879239790825
0                         -0.494                   0.03577344795095094      -2.0961137676977152E-16  0.9050264155238863       -0.017611286320098035    0.009045193067024941     -0.04998720169007748
0                         -0.493                   0.04169370166114362      -2.1265712614786193E-16  0.9050354603468576       -0.017611683773552097    0.009044390211937443     -0.05534596225000975
0                         -0.492                   0.047601958909917724     -1.546077654269513E-16   0.9050445039692535       -0.017611771372828263    0.009042854579957925     -0.06069366266241953
0                         -0.491                   0.05349821969727248      -1.127761367798561E-16   0.9050535460560176       -0.017611882219099362    0.00904131894804691      -0.06603063566379971
0                         -0.49                    0.05938248402320869      -8.716224020656923E-17   0.9050625866071498       -0.017612016778538547    0.009039783316172246     -0.07135688136774154
0                         -0.489                   0.06525475188772617      -7.776607570709258E-17   0.90507162562265         -0.01761217553015389     0.009038247684203483     -0.0766723999007809
0                         -0.488                   0.0711150232908248       -8.458764328142633E-17   0.9050806631025181       -0.017612358965832277    0.009036712052288473     -0.081977191402443
0                         -0.487                   0.07696329823250457      -1.0762694292956985E-16  0.9050896990467545       -0.017612567591362885    0.00903517642042991      -0.08727125602626606
0                         -0.486                   0.08279957671276535      -1.0286016568997589E-16  0.9050987334624699       -0.017612858123811255    0.009033425156766547     -0.09255465013776379
0                         -0.485                   0.08862385873160757      -7.981352391353084E-17   0.9051077657803634       -0.017612978578108673    0.009031210630328617     -0.09782712134950855
0                         -0.484                   0.09443614428903012      -5.80017836556779E-17    0.9051167958837305       -0.01761311552756082     0.009028996103860137     -0.10308885586206143
0                         -0.483                   0.1002364333850343       -3.74249449164124E-17    0.9051258237725711       -0.017613269321790873    0.009026781577407914     -0.10833985366144448
0                         -0.482                   0.10602472601961975      -1.808300769573545E-17   0.9051348494468854       -0.017613440319458364    0.00902456705095308      -0.11358011474287416
0                         -0.481                   0.11180102219278659      2.4028006353066872E-20   0.9051438729066731       -0.01761362888989369     0.009022352524525138     -0.11880963911239746
0                         -0.48                    0.11756532190453443      1.689616218985197E-17    0.9051528941519343       -0.017613835413034084    0.009020137998066375     -0.12402842678682723
0                         -0.479                   0.12331762515486298      4.560408177472778E-17    0.905161913047488        -0.017614059356558145    0.009017452171536426     -0.12923647685420697
0                         -0.478                   0.12905793194377307      6.685010076164647E-17    0.9051709290562773       -0.017614201524477353    0.009014565407302659     -0.13443368968410424
0                         -0.477                   0.13478624227126473      8.063421915051313E-17    0.9051799421783026       -0.0176143560015725      0.009011678643056163     -0.13962015898710659
0                         -0.476                   0.14050255613733686      8.695643694132607E-17    0.9051889524135633       -0.017614522681666796    0.009008791878785541     -0.14479588428305062
0                         -0.475                   0.14620687354199066      8.581675413408725E-17    0.9051979597620601       -0.017614701457753842    0.00900590511451128      -0.1499608650911533
0                         -0.474                   0.15189919448522565      7.7215170728796E-17      0.9052069642237924       -0.017614892224724978    0.009003018350221798     -0.15511510093273553
0                         -0.473                   0.15757951896704203      8.389631053998088E-17    0.9052159658178024       -0.017615132895207518    0.009000078577339267     -0.1602586293500632
0                         -0.472                   0.16324784698743888      1.2186437699243555E-16   0.9052249641225929       -0.017615280294825734    0.008996531003395935     -0.16539130672712063
0                         -0.471                   0.1689041785464174       1.422599122604593E-16    0.9052339588798094       -0.01761543665587262     0.00899298342952799      -0.17051323487278822
0                         -0.47                    0.17454851364397658      1.4508291634404903E-16   0.9052429500894521       -0.017615601912960695    0.008989435855659728     -0.17562441333776302
0                         -0.469                   0.1801808522801178       1.303333892432045E-16    0.9052519377515208       -0.01761577600254552     0.008985888281720613     -0.18072484167484268
0                         -0.46799999999999997     0.18580119445484014      9.80113309579249E-17     0.9052609218660156       -0.017615958860767916    0.008982340707871232     -0.18581451943676333
0                         -0.46699999999999997     0.1914095401681428       4.811674148822004E-17    0.9052699024329364       -0.017616150425086637    0.008978793133915195     -0.19089344617783446
0                         -0.46599999999999997     0.19700588942002736      -3.988777839840138E-18   0.9052788793927645       -0.01761635329972989     0.008974938840819631     -0.19596162410766713
0                         -0.46499999999999997     0.20259024221049238      -3.346853360868995E-17   0.9052878522316571       -0.017616512759597282    0.008970738943661252     -0.20101899801342513
0                         -0.46399999999999997     0.2081625985395388       -4.1499827665363774E-17  0.9052968208706519       -0.017616678496002756    0.008966539046522285     -0.20606561717802105
0                         -0.463                   0.21372295840716599      -2.8082660009862185E-17  0.9053057853097499       -0.017616850474526234    0.008962339149402948     -0.21110148117404867
0                         -0.462                   0.21927132181337486      6.782969357817177E-18    0.9053147455489508       -0.017617028661054534    0.00895813925227703      -0.2161265895747121
0                         -0.461                   0.2248076887581651       6.309706043767511E-17    0.9053237015882545       -0.017617213020739732    0.008953939355138342     -0.22114094195278197
0                         -0.46                    0.23033205924153663      1.4085961322971207E-16   0.9053326534276611       -0.01761740352042453     0.008949739457895893     -0.22614453788302213
0                         -0.459                   0.23584443326348903      6.15884735148919E-17     0.9053416008401027       -0.01761758501253425     0.008944990577734888     -0.23113736177252817
0                         -0.458                   0.2413448108240225       1.854911855205533E-18    0.9053505434088167       -0.01761775222646861     0.008940146849845917     -0.23611940785489546
0                         -0.457                   0.2468331919231372       -3.834107174835507E-17   0.9053594811338024       -0.01761792373122257     0.008935303121924405     -0.24109069429735433
0                         -0.456                   0.252309576560833        -5.899947729579059E-17   0.9053684140150603       -0.017618099508870933    0.008930459393925623     -0.24605122068056376
0                         -0.455                   0.25777396473710995      -6.012030478710028E-17   0.9053773420525902       -0.017618279542777456    0.008925615665994655     -0.2510009865868202
0                         -0.454                   0.26322635645196835      -4.1703554222282907E-17  0.9053862652463923       -0.01761846381592294     0.008920771938036339     -0.2559399915983862
0                         -0.453                   0.2686667517054076       1.0707800107042896E-17   0.9053951835835808       -0.017618654110842777    0.008915783655877842     -0.2608682370939646
0                         -0.452                   0.27409515049742844      8.407008373811863E-17    0.9054040966276784       -0.017618823165658267    0.008910304538874534     -0.26578569529181
0                         -0.451                   0.2795115528280302       1.35718895167353E-16     0.9054130041926587       -0.01761899506690069     0.008904825421968514     -0.2706923898194825
0                         -0.45                    0.2849159586972133       1.6565423439474814E-16   0.9054219062785224       -0.01761916980764144     0.008899346305074978     -0.27558832026044505
0                         -0.449                   0.29030836810497745      1.7387610142030256E-16   0.905430802885269        -0.017619347378623626    0.008893867188156641     -0.2804734861962256
0                         -0.448                   0.2956887810513227       1.6038449624401677E-16   0.9054396940128987       -0.01761952777268615     0.008888388071192934     -0.28534788721084275
0                         -0.447                   0.301057197536249        1.2517941886589114E-16   0.9054485796614115       -0.017619710981936376    0.008882908954245351     -0.290211522887978
0                         -0.446                   0.3064136175597569       1.3043640946997014E-16   0.905457459721682        -0.017619891143493608    0.00887705717753932      -0.295064386923282
0                         -0.445                   0.3117580411218457       1.629380133223103E-16    0.905466333725843        -0.017620063841675734    0.008870951143994518     -0.29990647434582396
0                         -0.444                   0.3170904682225154       1.9517052340165557E-16   0.9054752016239701       -0.017620238359351337    0.008864845110392178     -0.30473779400617257
0                         -0.443                   0.3224108988617668       2.2713393970801057E-16   0.9054840634160638       -0.01762041469295618     0.008858739076821338     -0.30955834548393435
0                         -0.442                   0.32771933303959927      2.588282622413714E-16    0.9054929191021237       -0.0176205928389815      0.008852633043297387     -0.3143681283592093
0                         -0.441                   0.3330157707560127       2.902534910017373E-16    0.9055017686821503       -0.017620772794360844    0.008846527009728903     -0.3191671422129798
0                         -0.44                    0.338300212011007        3.2140962598910856E-16   0.9055106121561433       -0.017620954556294467    0.008840420976200036     -0.3239553866269345
0                         -0.439                   0.34357265680458293      2.920344606742056E-16    0.9055194492435087       -0.01762113000607154     0.008833725188957819     -0.3287328529708865
0                         -0.438                   0.3488331051367399       2.535189753065495E-16    0.9055282796065212       -0.01762130471622199     0.008827000835994159     -0.3334995462804948
0                         -0.437                   0.35408155700747806      2.058631698864408E-16    0.9055371032451807       -0.017621480497112457    0.008820276482980659     -0.3382554679422074
0                         -0.436                   0.3593180124167975       1.4906704441387962E-16   0.905545920159487        -0.01762165734711145     0.008813552129967046     -0.34300061753095834
0                         -0.435                   0.36454247136469775      8.313059888887213E-17    0.9055547303494406       -0.017621835266500768    0.008806827776979857     -0.3477349946240783
0                         -0.434                   0.3697549338511797       8.053833311405564E-18    0.9055635338150411       -0.017622014253117668    0.008800103423928533     -0.3524585987969387
0                         -0.433                   0.37495539987624255      -3.072524760868831E-17   0.9055723305278908       -0.017622192995879703    0.008793192275838645     -0.3571714283058259
0                         -0.432                   0.38014386943988626      5.0492351940435085E-18   0.9055811200531848       -0.017622367906552916    0.008785858312714527     -0.3618734789752768
0                         -0.431                   0.38532034254211156      2.0910209474483057E-17   0.9055899022445161       -0.017622543412478823    0.008778524349637187     -0.3665647547480131
0                         -0.43                    0.390484819182918        1.6857675232627945E-17   0.9055986771018842       -0.01762271951307937     0.00877119038653837      -0.3712452551934984
0                         -0.429                   0.3956372993623054       -7.108367531520338E-18   0.9056074446252891       -0.017622896207936868    0.008763856423438361     -0.3759149798818848
0                         -0.428                   0.40077778308027406      -5.098791881796157E-17   0.905616204814731        -0.017623073498185225    0.008756522460356044     -0.38057392838540455
0                         -0.427                   0.40590627033682386      -1.1478097862669563E-16  0.9056249576702099       -0.017623251382086393    0.008749188497230295     -0.38522210027394527
0                         -0.426                   0.41102276113195463      -1.216912807086215E-16   0.9056337030635413       -0.01762342775675548     0.008741461982981109     -0.3898594929640889
0                         -0.425                   0.41612725546566715      -8.702755659061494E-17   0.9056424405581304       -0.017623603122759592    0.008733527195376454     -0.39448610634544296
0                         -0.424                   0.4212197533379606       -4.457005907869756E-17   0.9056511701179322       -0.017623778764827715    0.008725592407787327     -0.3991019412521385
0                         -0.423                   0.4263002547488347       5.681211827125262E-18    0.9056598917429463       -0.01762395468171265     0.008717657620213178     -0.4037069972475327
0                         -0.422                   0.43136875969829064      6.372625612686621E-17    0.9056686054331726       -0.017624130874546732    0.008709722832657293     -0.40830127389793497
0                         -0.421                   0.4364252681863274       1.2956507382051473E-16   0.9056773111886115       -0.017624307342719425    0.00870178804505407      -0.41288477076848107
0                         -0.42                    0.4414697802129457       2.0319766490808008E-16   0.9056860090092628       -0.01762448408622664     0.008693853257477293     -0.41745748742548583
0                         -0.419                   0.44650229577814443      1.3114726945344464E-16   0.9056946986017035       -0.017624659250587205    0.008685329120377913     -0.4220194214503424
0                         -0.418                   0.4515228148819246       6.410893936645865E-17    0.9057033796675035       -0.01762483445925601     0.008676802479760227     -0.42657057389479963
0                         -0.417                   0.45653133752428593      2.0826746479054966E-18   0.905712052206663        -0.017625009745000995    0.008668275839108572     -0.4311109443507747
0                         -0.416                   0.4615278637052288       -5.493152470222002E-17   0.9057207162191816       -0.017625185108824926    0.008659749198450094     -0.4356405323790336
0                         -0.415                   0.46651239342475276      -1.069336586839122E-16   0.9057293717050597       -0.017625360549647452    0.008651222557873428     -0.44015933753887243
0                         -0.414                   0.4714849266828581       -1.5392372729717394E-16  0.9057380186642973       -0.017625536068297233    0.008642695917189145     -0.4446673593921106
0                         -0.413                   0.4764454634795446       -1.8069758223690394E-16  0.9057466570642474       -0.01762571136339034     0.008633974196821395     -0.44916459718341384
0                         -0.41200000000000003     0.4813940038148118       -1.6779470132333426E-16  0.9057552864837062       -0.01762588607700402     0.008624864720496755     -0.4536510499138272
0                         -0.41100000000000003     0.4863305476886603       -1.4349519423034356E-16  0.9057639067936883       -0.017626060757996772    0.008615755244213895     -0.4581267176255919
0                         -0.41000000000000003     0.49125509510108994      -1.0779906095793266E-16  0.9057725179941944       -0.017626235407332817    0.008606645767988648     -0.46259159987452453
0                         -0.40900000000000003     0.49616764605210084      -6.070630150609952E-17   0.9057811200852243       -0.017626410024446666    0.008597536291694264     -0.46704569621556763
0                         -0.40800000000000003     0.5010682005416928       -2.216915874846609E-18   0.9057897130667779       -0.017626584608856466    0.008588426815470925     -0.4714890062044031
0                         -0.40700000000000003     0.5059567585698659       6.766909593582759E-17    0.9057982969388552       -0.01762675916099628     0.00857931733918601      -0.4759215293982843
0                         -0.406                   0.5108333201366203       1.054196030047986E-16    0.9058068715722003       -0.017626933397919427    0.008569822758124603     -0.48034326500571173
0                         -0.405                   0.5156978852419558       1.1339446618495663E-16   0.9058154365533889       -0.01762710741097059     0.008560139619355334     -0.48475421246107225
0                         -0.404                   0.5205504538858733       1.0947851001585054E-16   0.9058239918514389       -0.01762728131609219     0.008550456480488404     -0.48915437141507234
0                         -0.403                   0.5253910260683713       9.367173449748007E-17    0.90583253746635         -0.017627455114846716    0.008540773341594761     -0.4935437414204087
0                         -0.402                   0.53021960178945         6.597413962984777E-17    0.905841073398122        -0.017627628805462002    0.008531090202748415     -0.49792232202714226
0                         -0.401                   0.5350361810491103       2.638572541294864E-17    0.9058495996467554       -0.017627802388430588    0.008521407063895176     -0.502290112788296
0                         -0.4                     0.5398407638473516       -2.509350815321293E-17   0.90585811621225         -0.017627975864821788    0.008511723925009589     -0.5066471132581658
0                         -0.399                   0.544633350184174        -1.621475304970193E-17   0.9058666228088309       -0.01762814906138686     0.008501472799463011     -0.510993322661784
0                         -0.398                   0.5494139400595778       -2.0579132090966082E-17  0.905875119157849        -0.01762832212753397     0.008491225236450578     -0.5153287405459873
0                         -0.397                   0.5541825334735629       -3.8186645277370894E-17  0.9058836052593038       -0.017628495057631303    0.008480977673353799     -0.5196533664523973
0                         -0.396                   0.558939130426129        -6.903729260891422E-17   0.9058920811131955       -0.01762866785252925     0.008470730110263986     -0.5239671999298551
0                         -0.395                   0.5636837309172762       -1.1313107408559635E-16  0.9059005467195244       -0.01762884051171066     0.008460482547213447     -0.5282702405265725
0                         -0.394                   0.5684163349470049       -1.7046798970742071E-16  0.9059090020782901       -0.017629013035212665    0.008450234984112558     -0.5325624877920531
0                         -0.393                   0.5731369425153148       -1.6699349249519785E-16  0.9059174471573324       -0.017629185395291472    0.008439798414417535     -0.5368439412303242
0                         -0.392                   0.5778455536222052       -4.331167129148309E-17   0.905925881554387        -0.017629357555953844    0.008428995694623307     -0.5411146001234329
0                         -0.391                   0.582542168267677        4.513906202952065E-17    0.9059343051487215       -0.017629529560132737    0.008418192974769022     -0.5453744639895404
0                         -0.39                    0.5872267864517298       9.835870746781262E-17    0.9059427179403364       -0.017629701407527495    0.008407390254942262     -0.5496235323729771
0                         -0.389                   0.5918994081743641       1.1634726502339703E-16   0.9059511199292315       -0.017629873097994606    0.008396587535117243     -0.5538618048190092
0                         -0.388                   0.5965600334355795       9.910473469627006E-17    0.9059595111154067       -0.0176300446326711      0.008385784815300282     -0.5580892808749595
0                         -0.387                   0.6012086622353767       4.6631116486426145E-17   0.9059678914988621       -0.017630216009993288    0.008374982095437302     -0.5623059600862291
0                         -0.386                   0.6058452945737544       -6.158394360090139E-17   0.9059762609555633       -0.017630387181757863    0.008363811359325592     -0.5665118418772097
0                         -0.385                   0.6104699304507133       -1.5907904146559967E-16  0.9059846190926156       -0.01763055816245824     0.008352462745026296     -0.5707069255693433
0                         -0.384                   0.6150825698662532       -2.2435775468928255E-16  0.9059929658810533       -0.01763072897545628     0.008341114130672466     -0.5748912107103231
0                         -0.383                   0.6196832128203745       -2.5742008327194934E-16  0.9060013013208769       -0.01763089962065204     0.008329765516394529     -0.5790646968426132
0                         -0.382                   0.6242718593130774       -2.5826602721359806E-16  0.9060096254120862       -0.017631070097427908    0.008318416902154723     -0.5832273835089757
0                         -0.381                   0.628848509344361        -2.2689558651422916E-16  0.9060179381546811       -0.01763124040635836     0.008307068287804222     -0.587379270254181
0                         -0.38                    0.6334131629142257       -1.633087611738482E-16   0.9060262395486619       -0.017631410547301704    0.008295719673541717     -0.5915203566231015
0                         -0.379                   0.6379658200226715       -1.3105844946027102E-16  0.906034529321664        -0.017631580414762593    0.008283830447419805     -0.5956506418823131
0                         -0.378                   0.6425064806696988       -1.1349887906284081E-16  0.9060428072095567       -0.01763175010416728     0.008271945337751661     -0.5997701255004739
0                         -0.377                   0.6470351448553073       -1.1063004998136512E-16  0.9060510732123398       -0.017631919615996788    0.008260060228060567     -0.6038788070182497
0                         -0.376                   0.6515518125794968       -1.2245196221584228E-16  0.9060593273300128       -0.017632088950936355    0.008248175118340247     -0.6079766859773659
0                         -0.375                   0.6560564838422677       -1.4896461576627334E-16  0.9060675695625763       -0.017632258107883252    0.008236290008601722     -0.6120637619186163
0                         -0.374                   0.6605491586436198       -1.9016801063265822E-16  0.9060757999100302       -0.01763242708745965     0.008224404898932447     -0.6161400343853749
0                         -0.373                   0.6650298369835529       -2.569766770979195E-16   0.9060840183417208       -0.01763259584455889     0.008212339965092866     -0.620205502855756
0                         -0.372                   0.6694985188620669       -3.316291755988552E-16   0.9060922244755394       -0.017632764326983474    0.008199927672050258     -0.6242601665657925
0                         -0.371                   0.6739552042791619       -3.779584606456962E-16   0.9061004181970649       -0.01763293262472368     0.008187515379025078     -0.6283040250681605
0                         -0.37                    0.6783998932348381       -3.9596453223844913E-16  0.9061085995062972       -0.01763310073744951     0.008175103085964397     -0.6323370779016901
0                         -0.369                   0.6828325857290961       -3.8564739037711194E-16  0.9061167684032367       -0.017633268664954734    0.008162690792908295     -0.6363593246062295
0                         -0.368                   0.6872532817619351       -3.4700703506168536E-16  0.9061249248878831       -0.017633436408324647    0.008150278499917766     -0.6403707647238093
0                         -0.367                   0.6916619813333558       -2.8004346629216193E-16  0.9061330689602365       -0.01763360396630163     0.008137866206840115     -0.6443713977950131
0                         -0.366                   0.6960586844433567       -2.0310092125425452E-16  0.9061412005025001       -0.017633771234585094    0.008125104607299143     -0.6483612231762793
0                         -0.365                   0.7004433910919392       -1.3850083423431588E-16  0.9061493191420434       -0.0176339382547403      0.008112174479375364     -0.6523402401902452
0                         -0.364                   0.7048161012791027       -8.336979721522713E-17   0.906157424851459        -0.01763410507906281     0.008099244351473158     -0.6563084484079796
0                         -0.363                   0.7091768150048471       -3.7707810196987184E-17  0.9061655176307465       -0.01763427170779475     0.008086314223599313     -0.6602658473683861
0                         -0.362                   0.713525532269173        -1.5148731795902843E-18  0.9061735974799061       -0.017634438140358703    0.008073384095656451     -0.66421243661048
0                         -0.361                   0.71786225307208         2.5209013836956612E-17   0.9061816643989378       -0.017634604377083436    0.008060453967788461     -0.6681482156751123
0                         -0.36                    0.7221869774135676       4.2463850852654226E-17   0.9061897183878417       -0.017634770418154973    0.008047523839849994     -0.6720731841039224
0                         -0.359                   0.7264997052936373       -1.6677645856657845E-17  0.9061977591882903       -0.017634936107215234    0.008034081116080127     -0.6759873410952626
0                         -0.358                   0.7308004367122877       -6.392329733871888E-17   0.9062057865500739       -0.017635101583457737    0.008020642451299798     -0.6798906861454539
0                         -0.357                   0.7350891716695195       -9.927310359317578E-17   0.9062138004731927       -0.017635266846995328    0.008007203786417318     -0.6837832187923217
0                         -0.356                   0.7393659101653324       -1.2272706462002726E-16  0.9062218009576467       -0.017635431898111162    0.00799376512159302      -0.6876649385748282
0                         -0.355                   0.7436306521997266       -1.3428518041927391E-16  0.906229788003436        -0.017635596736838507    0.007980326456766058     -0.6915358450326535
0                         -0.354                   0.7478833977727017       -1.339474509909157E-16   0.9062377616105602       -0.017635761363617327    0.007966887791898242     -0.6953959377068508
0                         -0.353                   0.7521241468842582       -1.3452578001474774E-16  0.9062457217499442       -0.01763592572594243     0.007953278711753978     -0.6992452160646281
0                         -0.352                   0.7563528995343956       -1.511070380017259E-16   0.9062536680597583       -0.017636089763327267    0.007939340916456497     -0.7030836793140071