% Model:              C1EqPe1Eps01.mph
% Version:            COMSOL 5.6.0.280
% Date:               Jun 2 2021, 22:50
% Dimension:          2
% Nodes:              10201
% Expressions:        9
% Description:        Velocity field, x component, Velocity field, y component, Dependent variable u3, Gradient of u3, x component, Dependent variable u5, Gradient of u5, x component, , , Gradient of u3, y component
% Length unit:        m
% x                       y                        u (m/s)                  v (m/s)                  u3 (1)                   u3x (1/m)                u5 (1)                   u5x (1/m)                -u*u3+u3x                -u*u5+u5x                u3y (1/m)
-0.5                      -0.5                     3.6251913540006246E-16   -2.0085781951814682E-23  0.9139249532704183       -0.017662101880905775    0.9142393045420769       -0.01734258537788238     -0.017662101880906105    -0.017342585377882712    0.009139289475602733
-0.49                     -0.5                     3.334193467202256E-17    -4.7090987563473795E-24  0.9137483730884033       -0.017653925224071516    0.9140659350769391       -0.017331294158175192    -0.017653925224071547    -0.017331294158175223    0.00913752379741783
-0.48                     -0.5                     3.1583498403921395E-16   -4.958359506393256E-23   0.9135718749403612       -0.017645695629486268    0.9138926789175975       -0.01731992432478475     -0.017645695629486556    -0.01731992432478504     0.009135758947907276
-0.47                     -0.5                     3.010659739237135E-16    -7.060738447973513E-23   0.9133954593133556       -0.017637423177857298    0.913719536807724        -0.01730848684240398     -0.01763742317785757     -0.017308486842404255    0.009133994921858509
-0.46                     -0.5                     1.276089077183855E-16    -3.300346963529534E-23   0.9132191265920595       -0.01762911566314848     0.9135465093797438       -0.01729698867950377     -0.0176291156631486      -0.017296988679503886    0.009132231665551325
-0.45                     -0.5                     3.5463262283018787E-16   -1.2218300263663688E-22  0.9130428770766043       -0.017620784346279096    0.913373597191189        -0.017285441717954087    -0.01762078434627942     -0.01728544171795441     0.009130469193384136
-0.44                     -0.5                     -2.4204408901924783E-16  9.603339548169525E-23    0.912866710946821        -0.017612440497765246    0.9132008006703093       -0.017273856667784058    -0.017612440497765024    -0.017273856667783836    0.009128707515440494
-0.43                     -0.5                     -5.920887866643157E-17   2.9215467463156096E-23   0.9126906282650754       -0.017604096993034557    0.9130281201376343       -0.017262246765016184    -0.0176040969930345      -0.01726224676501613     0.009126946650552187
-0.42                     -0.5                     1.411904149935888E-16    -8.317790421136951E-23   0.9125146289608119       -0.017595767943445667    0.9128555557715631       -0.017250625841447886    -0.017595767943445795    -0.017250625841448014    0.009125186685908046
-0.41000000000000003      -0.5                     2.9914591785552587E-18   -2.0401348407227613E-24  0.91233871280777         -0.017587469135313533    0.9126831076045765       -0.01723900977184284     -0.017587469135313536    -0.017239009771842843    0.009123427719888623
-0.4                      -0.5                     1.0560399641380395E-16   -8.538521199629814E-23   0.912162879425987        -0.0175792176642534      0.9125107755061729       -0.017227415652434883    -0.017579217664253497    -0.01722741565243498     0.009121669738744675
-0.39                     -0.5                     -6.400716158105378E-17   6.02773293161546E-23     0.9119871282371786       -0.017571032853260705    0.912338559157256        -0.01721586262893548     -0.017571032853260646    -0.01721586262893542     0.009119912683114972
-0.38                     -0.5                     1.3401106063899132E-16   -1.4469552889882289E-22  0.9118114584916229       -0.01756293427395743     0.9121664580578864       -0.01720437056265857     -0.01756293427395755     -0.01720437056265869     0.00911815646608071
-0.37                     -0.5                     -3.11515377227542E-16    3.7627988629018296E-22   0.9116358691899282       -0.0175549464350953      0.9119944714680365       -0.017192963520657252    -0.017554946435095014    -0.017192963520656968    0.009116401062484519
-0.36                     -0.5                     -5.60963125593506E-16    7.989630120770452E-22    0.9114603591386843       -0.01754709073755271     0.9118225984442015       -0.01718166348412289     -0.0175470907375522      -0.01718166348412238     0.00911464646698288
-0.35                     -0.5                     1.1321206727697856E-16   -1.778333051516583E-22   0.911284926840405        -0.017539398136472466    0.9116508377480536       -0.01717050072020419     -0.01753939813647257     -0.017170500720204294    0.009112892640286465
-0.33999999999999997      -0.5                     -1.743199237502275E-16   3.313101179235702E-22    0.9111095705790008       -0.017531891565657428    0.9114791879130745       -0.017159499035197676    -0.01753189156565727     -0.017159499035197517    0.009111139571265655
-0.32999999999999996      -0.5                     1.3240999576644495E-16   -2.681374117008847E-22   0.9109342882674615       -0.017524610387119582    0.9113076471106978       -0.017148696866737454    -0.017524610387119704    -0.017148696866737576    0.009109387247339935
-0.32                     -0.5                     -3.3811579039027954E-16  8.26675968951927E-22     0.9107590775758863       -0.017517577418213477    0.9111362132596249       -0.017138118223044632    -0.01751757741821317     -0.017138118223044323    0.009107635706278363
-0.31                     -0.5                     -2.187980450399453E-16   5.707392575405181E-22    0.9105839357327344       -0.01751084287686505     0.910964883845055        -0.017127812184031227    -0.017510842876864854    -0.01712781218403103     0.009105884948685387
-0.3                      -0.5                     3.6283206866808694E-16   -1.1200842671663164E-21  0.9104088596927394       -0.01750442854054405     0.910793656068303        -0.017117802043175995    -0.01750442854054438     -0.017117802043176325    0.009104134941401916
-0.29000000000000004      -0.5                     2.8754847844078954E-16   -9.458837352691233E-22   0.9102338458877635       -0.017498398050986498    0.9106225266149046       -0.017108150136533665    -0.01749839805098676     -0.017108150136533926    0.009102385633193256
-0.28                     -0.5                     -3.2005521320505405E-17  1.2663512301063487E-22   0.9100588904428303       -0.01749277015828758     0.9104514918528094       -0.017098877079709248    -0.01749277015828755     -0.01709887707970922     0.009100637063048091
-0.27                     -0.5                     7.49133486481408E-16     -3.039605611062188E-21   0.9098839888737087       -0.017487625108773903    0.9102805475461867       -0.017090061713850368    -0.017487625108774583    -0.01709006171385105     0.009098889202719646
-0.26                     -0.5                     3.721655564600372E-18    -1.87927158054342E-23    0.9097091363495886       -0.017482976966149998    0.9101096891009414       -0.017081720333167665    -0.01748297696615        -0.01708172033316767     0.009097141874834494
-0.25                     -0.5                     3.217237053815693E-16    -1.66369383699884E-21    0.9095343273305138       -0.017478926368707938    0.9099389112170595       -0.017073952177809708    -0.01747892636870823     -0.01707395217781        0.009095394887611618
-0.24                     -0.5                     2.3786894107696883E-16   -1.5153826661147848E-21  0.90935955588888         -0.017475479413659584    0.909768208193551        -0.017066765987772837    -0.0174754794136598      -0.017066765987773052    0.009093648346237045
-0.22999999999999998      -0.5                     3.443768330612039E-16    -2.2699582358403637E-21  0.909184815282036        -0.017472761947961917    0.9095975735142077       -0.017060286377155183    -0.01747276194796223     -0.017060286377155495    0.00909190232480561
-0.21999999999999997      -0.5                     1.2568904301867878E-16   -1.0040268516378625E-21  0.9090100983266259       -0.017470769248132356    0.9094270002063156       -0.017054511710705225    -0.01747076924813247     -0.01705451171070534     0.009090156729102373
-0.21000000000000002      -0.5                     2.102766413966241E-16    -1.7128086502251484E-21  0.9088353969097963       -0.01746965730343417     0.9092564803624947       -0.017049597178453137    -0.01746965730343436     -0.017049597178453328    0.009088411403294258
-0.2                      -0.5                     -2.938111970624042E-16   2.9818151385089674E-21   0.9086607024145139       -0.017469407211652858    0.9090860055514616       -0.017045527454045684    -0.01746940721165259     -0.017045527454045417    0.009086666263584746
-0.19                     -0.5                     1.0204995858908035E-16   -1.03753822764369E-21    0.9084860051691493       -0.01747021097334859     0.9089155662748108       -0.017042494591551317    -0.017470210973348683    -0.01704249459155141     0.009084921238425648
-0.18                     -0.5                     5.363099108234195E-16    -6.991785662816607E-21   0.9083112949284892       -0.017472030768240363    0.9087451524344502       -0.017040464906430488    -0.01747203076824085     -0.017040464906430974    0.0090831763836308
-0.16999999999999998      -0.5                     -4.2597498819019397E-16  5.611723561305312E-21    0.9081365602546132       -0.01747510240838106     0.9085747527161064       -0.01703967576957954     -0.017475102408380672    -0.01703967576957915     0.009081431626953906
-0.15999999999999998      -0.5                     -9.202707479896021E-16   1.593739597263971E-20    0.9079617890476666       -0.01747936374903171     0.9084043551073926       -0.01704006982585786     -0.017479363749030873    -0.017040069825857023    0.009079686915012347
-0.14999999999999997      -0.5                     1.6338638867592967E-16   -2.8114479547520348E-21  0.9077869678713162       -0.017485102636658253    0.9082339462191462       -0.01704193908224007     -0.017485102636658402    -0.01704193908224022     0.009077942085575547
-0.14                     -0.5                     -4.506540602424769E-17   1.0551337048693613E-21   0.9076120825206462       -0.017492226826162843    0.9080635118410179       -0.017045196873531097    -0.0174922268261628      -0.017045196873531055    0.009076197170701801
-0.13                     -0.5                     2.734123864461396E-16    -6.278837639473992E-21   0.907437117299689        -0.01750108520650757     0.9078930362050492       -0.01705020069200159     -0.01750108520650782     -0.01705020069200184     0.009074451826795043
-0.12                     -0.5                     2.2016255045281794E-17   -7.211239606275043E-22   0.9072620556150938       -0.017511549484637897    0.9077225025658967       -0.017056828867506858    -0.017511549484637918    -0.01705682886750688     0.009072706181641353
-0.10999999999999999      -0.5                     1.3692497322564668E-16   -4.343056684568523E-21   0.907086879207342        -0.017524041020921994    0.9075518924030626       -0.017065518996012358    -0.01752404102092212     -0.017065518996012483    0.009070959582176725
-0.09999999999999998      -0.5                     1.2831154381460017E-16   -6.209438107801022E-21   0.9069115687693043       -0.017538387170679598    0.9073811860207522       -0.0170761067211998      -0.017538387170679716    -0.017076106721199916    0.009069213123258452
-0.08999999999999997      -0.5                     -8.886292640954879E-16   4.332761701897968E-20    0.9067361031492706       -0.01755509185922806     0.9072103616967174       -0.017089125773851896    -0.017555091859227254    -0.01708912577385109     0.009067465515381026
-0.08000000000000002      -0.5                     -6.13400062665024E-16    4.888243688115055E-20    0.9065604599777454       -0.017573931274083694    0.9070393962758291       -0.017104363821324114    -0.01757393127408314     -0.01710436382132356     0.009065719224304894
-0.07                     -0.5                     -9.112592587783924E-16   7.639801981942454E-20    0.9063846148496743       -0.017595500739063068    0.9068682642511388       -0.017122471351674575    -0.017595500739062242    -0.01712247135167375     0.00906396980969076
-0.06                     -0.5                     6.421703515364815E-17    -9.267343802406496E-21   0.9062085419711964       -0.017619519080510695    0.9066969383377217       -0.017143186510780922    -0.017619519080510754    -0.01714318651078098     0.009062223314245645
-0.04999999999999999      -0.5                     3.4296277597348137E-16   -5.812564699783943E-20   0.9060322133598316       -0.01764666479999501     0.9065253884668377       -0.017167294956311797    -0.017646664799995323    -0.01716729495631211     0.009060469964745447
-0.03999999999999998      -0.5                     9.278731331717183E-16    -2.8164819721341523E-19  0.9058555996129976       -0.017676589619049648    0.9063535823651978       -0.01719449167071201     -0.017676589619050487    -0.01719449167071285     0.009058722800151558
-0.02999999999999997      -0.5                     1.412605204870141E-15    -6.417345518953132E-19   0.905678669217173        -0.01770999762432483     0.906181484358377        -0.01722571448710158     -0.01770999762432611     -0.01722571448710286     0.009056965241870015
-0.020000000000000018     -0.5                     2.357483005762381E-15    -1.8708224693510678E-18  0.9055013899066077       -0.017746406557160397    0.9060090561011096       -0.017260619020267095    -0.01774640655716253     -0.017260619020269232    0.009055216320459483
-0.010000000000000009     -0.5                     -1.899153165045554E-15   3.4192409270788245E-18   0.9053237290861096       -0.017786221639668885    0.9058362552110437       -0.017300276790122086    -0.017786221639667164    -0.017300276790120365    0.009053492433360557
0                         -0.5                     NaN                      NaN                      NaN                      NaN                      NaN                      NaN                      NaN                      NaN                      NaN
0.010000000000000009      -0.5                     NaN                      NaN                      NaN                      NaN                      NaN                      NaN                      NaN                      NaN                      NaN
0.020000000000000018      -0.5                     NaN                      NaN                      NaN                      NaN                      NaN                      NaN                      NaN                      NaN                      NaN
0.030000000000000027      -0.5                     NaN                      NaN                      NaN                      NaN                      NaN                      NaN                      NaN                      NaN                      NaN
0.040000000000000036      -0.5                     NaN                      NaN                      NaN                      NaN                      NaN                      NaN                      NaN                      NaN                      NaN
0.050000000000000044      -0.5                     NaN                      NaN                      NaN                      NaN                      NaN                      NaN                      NaN                      NaN                      NaN
0.06000000000000005       -0.5                     NaN                      NaN                      NaN                      NaN                      NaN                      NaN                      NaN                      NaN                      NaN
0.07000000000000006       -0.5                     NaN                      NaN                      NaN                      NaN                      NaN                      NaN                      NaN                      NaN                      NaN
0.07999999999999996       -0.5                     NaN                      NaN                      NaN                      NaN                      NaN                      NaN                      NaN                      NaN                      NaN
0.08999999999999997       -0.5                     NaN                      NaN                      NaN                      NaN                      NaN                      NaN                      NaN                      NaN                      NaN
0.09999999999999998       -0.5                     NaN                      NaN                      NaN                      NaN                      NaN                      NaN                      NaN                      NaN                      NaN
0.10999999999999999       -0.5                     NaN                      NaN                      NaN                      NaN                      NaN                      NaN                      NaN                      NaN                      NaN
0.12                      -0.5                     NaN                      NaN                      NaN                      NaN                      NaN                      NaN                      NaN                      NaN                      NaN
0.13                      -0.5                     NaN                      NaN                      NaN                      NaN                      NaN                      NaN                      NaN                      NaN                      NaN
0.14                      -0.5                     NaN                      NaN                      NaN                      NaN                      NaN                      NaN                      NaN                      NaN                      NaN
0.15000000000000002       -0.5                     NaN                      NaN                      NaN                      NaN                      NaN                      NaN                      NaN                      NaN                      NaN
0.16000000000000003       -0.5                     NaN                      NaN                      NaN                      NaN                      NaN                      NaN                      NaN                      NaN                      NaN
0.17000000000000004       -0.5                     NaN                      NaN                      NaN                      NaN                      NaN                      NaN                      NaN                      NaN                      NaN
0.18000000000000005       -0.5                     NaN                      NaN                      NaN                      NaN                      NaN                      NaN                      NaN                      NaN                      NaN
0.19000000000000006       -0.5                     NaN                      NaN                      NaN                      NaN                      NaN                      NaN                      NaN                      NaN                      NaN
0.20000000000000007       -0.5                     NaN                      NaN                      NaN                      NaN                      NaN                      NaN                      NaN                      NaN                      NaN
0.20999999999999996       -0.5                     NaN                      NaN                      NaN                      NaN                      NaN                      NaN                      NaN                      NaN                      NaN
0.21999999999999997       -0.5                     NaN                      NaN                      NaN                      NaN                      NaN                      NaN                      NaN                      NaN                      NaN
0.22999999999999998       -0.5                     NaN                      NaN                      NaN                      NaN                      NaN                      NaN                      NaN                      NaN                      NaN
0.24                      -0.5                     NaN                      NaN                      NaN                      NaN                      NaN                      NaN                      NaN                      NaN                      NaN
0.25                      -0.5                     NaN                      NaN                      NaN                      NaN                      NaN                      NaN                      NaN                      NaN                      NaN
0.26                      -0.5                     NaN                      NaN                      NaN                      NaN                      NaN                      NaN                      NaN                      NaN                      NaN
0.27                      -0.5                     NaN                      NaN                      NaN                      NaN                      NaN                      NaN                      NaN                      NaN                      NaN
0.28                      -0.5                     NaN                      NaN                      NaN                      NaN                      NaN                      NaN                      NaN                      NaN                      NaN
0.29000000000000004       -0.5                     NaN                      NaN                      NaN                      NaN                      NaN                      NaN                      NaN                      NaN                      NaN
0.30000000000000004       -0.5                     NaN                      NaN                      NaN                      NaN                      NaN                      NaN                      NaN                      NaN                      NaN
0.31000000000000005       -0.5                     NaN                      NaN                      NaN                      NaN                      NaN                      NaN                      NaN                      NaN                      NaN
0.32000000000000006       -0.5                     NaN                      NaN                      NaN                      NaN                      NaN                      NaN                      NaN                      NaN                      NaN
0.33000000000000007       -0.5                     NaN                      NaN                      NaN                      NaN                      NaN                      NaN                      NaN                      NaN                      NaN
0.33999999999999997       -0.5                     NaN                      NaN                      NaN                      NaN                      NaN                      NaN                      NaN                      NaN                      NaN
0.35                      -0.5                     NaN                      NaN                      NaN                      NaN                      NaN                      NaN                      NaN                      NaN                      NaN
0.36                      -0.5                     NaN                      NaN                      NaN                      NaN                      NaN                      NaN                      NaN                      NaN                      NaN
0.37                      -0.5                     NaN                      NaN                      NaN                      NaN                      NaN                      NaN                      NaN                      NaN                      NaN
0.38                      -0.5                     NaN                      NaN                      NaN                      NaN                      NaN                      NaN                      NaN                      NaN                      NaN
0.39                      -0.5                     NaN                      NaN                      NaN                      NaN                      NaN                      NaN                      NaN                      NaN                      NaN
0.4                       -0.5                     NaN                      NaN                      NaN                      NaN                      NaN                      NaN                      NaN                      NaN                      NaN
0.41000000000000003       -0.5                     NaN                      NaN                      NaN                      NaN                      NaN                      NaN                      NaN                      NaN                      NaN
0.42000000000000004       -0.5                     NaN                      NaN                      NaN                      NaN                      NaN                      NaN                      NaN                      NaN                      NaN
0.43000000000000005       -0.5                     NaN                      NaN                      NaN                      NaN                      NaN                      NaN                      NaN                      NaN                      NaN
0.44000000000000006       -0.5                     NaN                      NaN                      NaN                      NaN                      NaN                      NaN                      NaN                      NaN                      NaN
0.45000000000000007       -0.5                     NaN                      NaN                      NaN                      NaN                      NaN                      NaN                      NaN                      NaN                      NaN
0.45999999999999996       -0.5                     NaN                      NaN                      NaN                      NaN                      NaN                      NaN                      NaN                      NaN                      NaN
0.47                      -0.5                     NaN                      NaN                      NaN                      NaN                      NaN                      NaN                      NaN                      NaN                      NaN
0.48                      -0.5                     NaN                      NaN                      NaN                      NaN                      NaN                      NaN                      NaN                      NaN                      NaN
0.49                      -0.5                     NaN                      NaN                      NaN                      NaN                      NaN                      NaN                      NaN                      NaN                      NaN
0.5                       -0.5                     NaN                      NaN                      NaN                      NaN                      NaN                      NaN                      NaN                      NaN                      NaN
-0.5                      -0.49                    0.06171029541590512      -1.1593158566843478E-4   0.9140162867344671       -0.01766390791558782     0.9143306542608105       -0.017344372096670817    -0.07406812298492044     -0.07376798687892325     0.009125633247114405
-0.49                     -0.49                    0.06195210104068948      -1.266266682653283E-4    0.9138396885522274       -0.017655720803385667    0.9141572669936152       -0.017333069586687518    -0.07427000952356547     -0.07396703295855653     0.009123793824846642
-0.48                     -0.49                    0.06221611492454463      -1.3822823895237078E-4   0.9136631724437334       -0.01764749420664228     0.9139839930783694       -0.017321702910358686    -0.07449206714572564     -0.07418623606291672     0.009121960081359681
-0.47                     -0.49                    0.062504064228765        -1.508233596592971E-4    0.9134867389001697       -0.017639210930492883    0.9138108332563709       -0.017310253835036527    -0.07473584473083418     -0.07442714484983401     0.00912012855925752
-0.46                     -0.49                    0.06281812784877769      -1.644855265935749E-4    0.9133103883146451       -0.017630902750488082    0.9136377881750757       -0.01729875497011801     -0.07500335148925426     -0.07469177035517438     0.009118319935168295
-0.45                     -0.49                    0.06316038295115058      -1.792975915896406E-4    0.9131341209843494       -0.01762256200415954     0.9134648583825303       -0.01728719805071272     -0.07529646277129332     -0.07498198831857186     0.009116499361935093
-0.44                     -0.49                    0.06353331874934161      -1.953790070854118E-4    0.9129579371047877       -0.017614214911101805    0.9132920443293286       -0.01727560958057487     -0.07561746253392165     -0.07530008414418793     0.009114706522544876
-0.43                     -0.49                    0.06393943758695811      -2.1281521636084226E-4   0.9127818367419247       -0.01760586059184951     0.9131193463328692       -0.01726398837306497     -0.07596861787271879     -0.07564832582735945     0.009112931979028545
-0.42                     -0.49                    0.06438161654759804      -2.3174258896950357E-4   0.9126058198164174       -0.017597526529576968    0.9129467645700322       -0.017252362209496063    -0.0763525644801039      -0.07602935073441414     0.009111146150797188