% Model:              C2EQPeEpsMin1Eps002.mph
% Version:            COMSOL 5.6.0.280
% Date:               Jun 4 2021, 09:48
% Dimension:          2
% Nodes:              10201
% Expressions:        8
% Description:        Velocity field, x component, Velocity field, y component, Dependent variable u4, Gradient of u4, x component, Gradient of u4, y component, , , 
% Length unit:        m
% x                       y                        u2 (m/s)                 v2 (m/s)                 u4 (1)                   u4x (1/m)                u4y (1/m)                u6 (1)                   u6x (1/m)                u6y (1/m)
-1                        -2                       NaN                      NaN                      NaN                      NaN                      NaN                      NaN                      NaN                      NaN
-0.97                     -2                       NaN                      NaN                      NaN                      NaN                      NaN                      NaN                      NaN                      NaN
-0.94                     -2                       NaN                      NaN                      NaN                      NaN                      NaN                      NaN                      NaN                      NaN
-0.91                     -2                       NaN                      NaN                      NaN                      NaN                      NaN                      NaN                      NaN                      NaN
-0.88                     -2                       NaN                      NaN                      NaN                      NaN                      NaN                      NaN                      NaN                      NaN
-0.85                     -2                       NaN                      NaN                      NaN                      NaN                      NaN                      NaN                      NaN                      NaN
-0.8200000000000001       -2                       NaN                      NaN                      NaN                      NaN                      NaN                      NaN                      NaN                      NaN
-0.79                     -2                       NaN                      NaN                      NaN                      NaN                      NaN                      NaN                      NaN                      NaN
-0.76                     -2                       NaN                      NaN                      NaN                      NaN                      NaN                      NaN                      NaN                      NaN
-0.73                     -2                       NaN                      NaN                      NaN                      NaN                      NaN                      NaN                      NaN                      NaN
-0.7                      -2                       NaN                      NaN                      NaN                      NaN                      NaN                      NaN                      NaN                      NaN
-0.67                     -2                       NaN                      NaN                      NaN                      NaN                      NaN                      NaN                      NaN                      NaN
-0.64                     -2                       NaN                      NaN                      NaN                      NaN                      NaN                      NaN                      NaN                      NaN
-0.61                     -2                       NaN                      NaN                      NaN                      NaN                      NaN                      NaN                      NaN                      NaN
-0.5800000000000001       -2                       NaN                      NaN                      NaN                      NaN                      NaN                      NaN                      NaN                      NaN
-0.55                     -2                       NaN                      NaN                      NaN                      NaN                      NaN                      NaN                      NaN                      NaN
-0.52                     -2                       NaN                      NaN                      NaN                      NaN                      NaN                      NaN                      NaN                      NaN
-0.49                     -2                       NaN                      NaN                      NaN                      NaN                      NaN                      NaN                      NaN                      NaN
-0.45999999999999996      -2                       NaN                      NaN                      NaN                      NaN                      NaN                      NaN                      NaN                      NaN
-0.43000000000000005      -2                       NaN                      NaN                      NaN                      NaN                      NaN                      NaN                      NaN                      NaN
-0.4                      -2                       NaN                      NaN                      NaN                      NaN                      NaN                      NaN                      NaN                      NaN
-0.37                     -2                       NaN                      NaN                      NaN                      NaN                      NaN                      NaN                      NaN                      NaN
-0.3400000000000001       -2                       NaN                      NaN                      NaN                      NaN                      NaN                      NaN                      NaN                      NaN
-0.31000000000000005      -2                       NaN                      NaN                      NaN                      NaN                      NaN                      NaN                      NaN                      NaN
-0.28                     -2                       NaN                      NaN                      NaN                      NaN                      NaN                      NaN                      NaN                      NaN
-0.25                     -2                       NaN                      NaN                      NaN                      NaN                      NaN                      NaN                      NaN                      NaN
-0.21999999999999997      -2                       NaN                      NaN                      NaN                      NaN                      NaN                      NaN                      NaN                      NaN
-0.19000000000000006      -2                       NaN                      NaN                      NaN                      NaN                      NaN                      NaN                      NaN                      NaN
-0.16000000000000003      -2                       NaN                      NaN                      NaN                      NaN                      NaN                      NaN                      NaN                      NaN
-0.13                     -2                       NaN                      NaN                      NaN                      NaN                      NaN                      NaN                      NaN                      NaN
-0.10000000000000009      -2                       NaN                      NaN                      NaN                      NaN                      NaN                      NaN                      NaN                      NaN
-0.07000000000000006      -2                       NaN                      NaN                      NaN                      NaN                      NaN                      NaN                      NaN                      NaN
-0.040000000000000036     -2                       NaN                      NaN                      NaN                      NaN                      NaN                      NaN                      NaN                      NaN
-0.010000000000000009     -2                       NaN                      NaN                      NaN                      NaN                      NaN                      NaN                      NaN                      NaN
0.020000000000000018      -2                       1.1018151034370733       -0.6166002469471975      0.04790310497783193      0.18520699621124628      2.3352052169470254       0                        0                        0
0.050000000000000044      -2                       1.1002744541346345       -0.5894501847712752      0.05337306970987764      0.17829009904273685      2.6268262396272464       0                        0                        0
0.08000000000000007       -2                       1.0974104205765844       -0.5618259826475528      0.05873666495295744      0.1671675998858721       2.8986576939877042       0                        0                        0
0.10999999999999988       -2                       1.0932616128321597       -0.5339117352554477      0.06379273307908294      0.16444033010748657      3.1471186530930453       0                        0                        0
0.1399999999999999        -2                       1.087883917965482        -0.505872613262172       0.06858229852756714      0.15913380264398586      3.3832024660529445       0                        0                        0
0.16999999999999993       -2                       1.081333300585993        -0.47787358953918985     0.07289562401018893      0.13666113343558775      3.604003446535689        0                        0                        0
0.19999999999999996       -2                       1.0736830893060962       -0.45005597213416226     0.0767976722289867       0.12704759322207643      3.7993255687823          0                        0                        0
0.22999999999999998       -2                       1.0650038405921747       -0.42256036161179095     0.08012610179964584      0.10221796919938896      3.9695171441955845       0                        0                        0
0.26                      -2                       1.0553792692652963       -0.39550109340602657     0.08295954412284443      0.08968846098598872      4.114617294396083        0                        0                        0
0.29000000000000004       -2                       1.0448891035297734       -0.3689922309166756      0.08518636970171106      0.0649042534247937       4.227976967601579        0                        0                        0
0.31999999999999984       -2                       1.0336219308957229       -0.3431207582377337      0.08689264949790006      0.05122921458207839      4.31905559718878         0                        0                        0
0.34999999999999987       -2                       1.0216611523709107       -0.3179736993631777      0.08801444652281212      0.028372914392720307     4.375429760337583        0                        0                        0
0.3799999999999999        -2                       1.0090951904868912       -0.2936120568501687      0.08863856630323379      0.015021104126809038     4.4137941611478775       0                        0                        0
0.4099999999999999        -2                       0.9960063815606883       -0.27009713549059966     0.08874016446506097      -0.004669584271087075    4.4176631978299135       0                        0                        0
0.43999999999999995       -2                       0.9824789015406076       -0.2474665796441236      0.08840149375704871      -0.016633377098638737    4.408425537532607        0                        0                        0
0.47                      -2                       0.9685903152140698       -0.22575861158522506     0.08762612453598177      -0.032536496546530264    4.367318693706324        0                        0                        0
0.5                       -2                       0.9544175953239873       -0.20499092474109662     0.08648812524580438      -0.042461438181740384    4.317976793669107        0                        0                        0
0.53                      -2                       0.9400309630312529       -0.18518207441133355     0.08500908677326333      -0.054458234148333264    4.240967890378287        0                        0                        0
0.56                      -2                       0.9254983505001374       -0.1663335293137788      0.08325288052336119      -0.062056603233303816    4.160114694819681        0                        0                        0
0.5899999999999999        -2                       0.9108811349361143       -0.14844789135784853     0.08125033886665878      -0.07038689105632599     4.056593228735661        0                        0                        0
0.6199999999999999        -2                       0.8962373549910497       -0.13151407384587963     0.07905445390478479      -0.07565344573384242     3.9528902896672578       0                        0                        0
0.6499999999999999        -2                       0.8816189477873898       -0.11552236253079932     0.07669868329667244      -0.08077550173165972     3.831680978977459        0                        0                        0
0.6799999999999999        -2                       0.86707398555519         -0.10045246892216989     0.07422541476791636      -0.08390006034726166     3.713138279804468        0                        0                        0
0.71                      -2                       0.8526450593581523       -0.08628567245918915     0.07166628784483671      -0.08637462670672705     3.581958556400625        0                        0                        0
0.74                      -2                       0.8383707597115677       -0.07299537544094724     0.06905397025566146      -0.08766221949650048     3.455502238153625        0                        0                        0
0.77                      -2                       0.824284900416823        -0.06055669640090984     0.06641571243114347      -0.08806728493990021     3.3207020730535524       0                        0                        0
0.7999999999999998        -2                       0.8104174279140972       -0.04893910648865717     0.06377567845650617      -0.0878732256394191      3.1919794648873          0                        0                        0
0.8299999999999998        -2                       0.7967942337414948       -0.03811389717276381     0.06115559955744587      -0.08674836140820207     3.0584914167107233       0                        0                        0
0.8599999999999999        -2                       0.7834376428911002       -0.028048482940876043    0.05857248260130468      -0.08543059079060829     2.9318515440475883       0                        0                        0
0.8899999999999999        -2                       0.7703666168703697       -0.018712165093438128    0.0560424080253996       -0.08324578859013668     2.8032803849202375       0                        0                        0
0.9199999999999999        -2                       0.7575969414604918       -0.010071721973623137    0.05357656468243283      -0.08113364656728768     2.681870202109207        0                        0                        0
0.95                      -2                       0.7451416699993348       -0.0020958556054970147   0.05118586418745514      -0.07827643507303163     2.5606623114411637       0                        0                        0
0.98                      -2                       0.7330111054809634       0.005248257381710275     0.04887692231508176      -0.07565326358842149     2.44658812273455         0                        0                        0
1.0099999999999998        -2                       0.7212133736533082       0.011991501747404418     0.04665627822201913      -0.07242820375956434     2.3342351113027036       0                        0                        0
1.04                      -2                       0.7097542730179143       0.018165582166308186     0.04452707571322761      -0.06952449212602158     2.228750606494928        0                        0                        0
1.0699999999999998        -2                       0.6986378993806112       0.023800265179069944     0.04249238162634231      -0.06616016046781636     2.125995733605709        0                        0                        0
1.1                       -2                       0.6878664196283608       0.028925662658185858     0.04055280280338223      -0.06315396838034146     2.0296899597021127       0                        0                        0
1.13                      -2                       0.6774406941480342       0.033569959174864536     0.03870880417007642      -0.05981374009632121     1.936717966194051        0                        0                        0
1.1600000000000001        -2                       0.6673600158616683       0.037761386943577155     0.036959221482169805     -0.05683557223769507     1.849686828570927        0                        0                        0
1.19                      -2                       0.657622695521234        0.041526268454569984     0.03530268491999509      -0.053629648190762415    1.7662871265176165       0                        0                        0
1.2199999999999998        -2                       0.6482257959513545       0.04489080774512988      0.03373686568300294      -0.0507695749917286      1.6882800162815985       0                        0                        0
1.25                      -2                       0.6391656588228064       0.04787932106041299      0.03225919209114323      -0.04776663778243577     1.6139797577154562       0                        0                        0
1.2799999999999998        -2                       0.6304376549631618       0.05051593508410644      0.03086663542201715      -0.045082097602014724    1.5445185849489178       0                        0                        0
1.31                      -2                       0.6220366409168047       0.05282291354617754      0.029555917009851277     -0.04231969886885091     1.47868635259662         0                        0                        0
1.3399999999999999        -2                       0.6139567391391921       0.054822325777315634     0.02832365207701444      -0.03984298163231714     1.4171579134354537       0                        0                        0
1.37                      -2                       0.6061917194150174       0.05653440511780929      0.027166223698193152     -0.03733626750533201     1.3590811560686402       0                        0                        0
1.4                       -2                       0.5987348173840186       0.05797922995773468      0.026080136024463598     -0.03508112545158537     1.3048058064540922       0                        0                        0
1.4299999999999997        -2                       0.5915790404792897       0.05917507143979976      0.025061695627048127     -0.03282983443464289     1.253746204289992        0                        0                        0
1.46                      -2                       0.5847170292166968       0.060140113022978295     0.024107462376084323     -0.030796985344054728    1.206026705210216        0                        0                        0
1.4899999999999998        -2                       0.5781412903296999       0.06089076135423385      0.023213842279688566     -0.028790843993656636    1.1612578514567395       0                        0                        0
1.52                      -2                       0.571844102310876        0.06144341839266288      0.022377557875124385     -0.026972340523776343    1.1194123871243618       0                        0                        0
1.5499999999999998        -2                       0.5658176803098196       0.061812741455440516     0.02159522476271437      -0.025195076474524652    1.080243865926607        0                        0                        0
1.58                      -2                       0.5600541253097602       0.062013473210527956     0.0208637907519152       -0.023577635651329025    1.0436269314428182       0                        0                        0
1.6099999999999999        -2                       0.554545526455564        0.06205864567533818      0.020180142780203494     -0.02200985797303454     1.009418315545203        0                        0                        0
1.6399999999999997        -2                       0.5492839517889274       0.06196146720500602      0.019541484765669286     -0.020577302352032673    0.9774326501960174       0                        0                        0
1.67                      -2                       0.5442614942275652       0.06173347139459729      0.018945002511426456     -0.01919849147299627     0.947600302190518        0                        0                        0
1.6999999999999997        -2                       0.5394703008144958       0.06138645596259245      0.01838816496521766      -0.017933469776403577    0.9197024575838394       0                        0                        0
1.73                      -2                       0.5349025687518564       0.06093058169696893      0.017868461183634044     -0.016723291504520264    0.893721397660659        0                        0                        0
1.7599999999999998        -2                       0.5305506095210801       0.060376355383635574     0.017383619631946425     -0.01560843861077247     0.8694229651155448       0                        0                        0
1.79                      -2                       0.5264068013094534       0.059732686635968174     0.01693142218566523      -0.01454756118072082     0.8468255184021835       0                        0                        0
1.8199999999999998        -2                       0.5224636840329613       0.05900890537052974      0.016509842397334523     -0.013566237214280134    0.8256915429114277       0                        0                        0
1.85                      -2                       0.5187138742679192       0.05821278595406516      0.01611693573907799      -0.012636794083128873    0.8060640215262654       0                        0                        0
1.88                      -2                       0.5151501870831547       0.057352588892844725     0.015750901447406238     -0.011773517845722383    0.7877097174883264       0                        0                        0
1.9099999999999997        -2                       0.5117655192635617       0.05643506251812207      0.015410044812318469     -0.01095932607892252     0.7706880278745025       0                        0                        0
1.94                      -2                       0.508552993876717        0.055467498307242576     0.015092769110550084     -0.010199993792970027    0.7547745849742468       0                        0                        0
1.9699999999999998        -2                       0.5055058171919574       0.054455720535101566     0.014797603974502856     -0.009486610031080686    0.7400393711935566       0                        0                        0
2                         -2                       0.5026174420257958       0.053406144814513286     0.014523134659859766     -0.00881856871383736     0.7262693887459412       0                        0                        0
-1                        -1.97                    NaN                      NaN                      NaN                      NaN                      NaN                      NaN                      NaN                      NaN
-0.97                     -1.97                    NaN                      NaN                      NaN                      NaN                      NaN                      NaN                      NaN                      NaN
-0.94                     -1.97                    NaN                      NaN                      NaN                      NaN                      NaN                      NaN                      NaN                      NaN
-0.91                     -1.97                    NaN                      NaN                      NaN                      NaN                      NaN                      NaN                      NaN                      NaN
-0.88                     -1.97                    NaN                      NaN                      NaN                      NaN                      NaN                      NaN                      NaN                      NaN
-0.85                     -1.97                    NaN                      NaN                      NaN                      NaN                      NaN                      NaN                      NaN                      NaN
-0.8200000000000001       -1.97                    NaN                      NaN                      NaN                      NaN                      NaN                      NaN                      NaN                      NaN
-0.79                     -1.97                    NaN                      NaN                      NaN                      NaN                      NaN                      NaN                      NaN                      NaN
-0.76                     -1.97                    NaN                      NaN                      NaN                      NaN                      NaN                      NaN                      NaN                      NaN
-0.73                     -1.97                    NaN                      NaN                      NaN                      NaN                      NaN                      NaN                      NaN                      NaN
-0.7                      -1.97                    NaN                      NaN                      NaN                      NaN                      NaN                      NaN                      NaN                      NaN
-0.67                     -1.97                    NaN                      NaN                      NaN                      NaN                      NaN                      NaN                      NaN                      NaN
-0.64                     -1.97                    NaN                      NaN                      NaN                      NaN                      NaN                      NaN                      NaN                      NaN
-0.61                     -1.97                    NaN                      NaN                      NaN                      NaN                      NaN                      NaN                      NaN                      NaN
-0.5800000000000001       -1.97                    NaN                      NaN                      NaN                      NaN                      NaN                      NaN                      NaN                      NaN
-0.55                     -1.97                    NaN                      NaN                      NaN                      NaN                      NaN                      NaN                      NaN                      NaN
-0.52                     -1.97                    NaN                      NaN                      NaN                      NaN                      NaN                      NaN                      NaN                      NaN
-0.49                     -1.97                    NaN                      NaN                      NaN                      NaN                      NaN                      NaN                      NaN                      NaN
-0.45999999999999996      -1.97                    NaN                      NaN                      NaN                      NaN                      NaN                      NaN                      NaN                      NaN
-0.43000000000000005      -1.97                    NaN                      NaN                      NaN                      NaN                      NaN                      NaN                      NaN                      NaN
-0.4                      -1.97                    NaN                      NaN                      NaN                      NaN                      NaN                      NaN                      NaN                      NaN
-0.37                     -1.97                    NaN                      NaN                      NaN                      NaN                      NaN                      NaN                      NaN                      NaN
-0.3400000000000001       -1.97                    NaN                      NaN                      NaN                      NaN                      NaN                      NaN                      NaN                      NaN
-0.31000000000000005      -1.97                    NaN                      NaN                      NaN                      NaN                      NaN                      NaN                      NaN                      NaN
-0.28                     -1.97                    NaN                      NaN                      NaN                      NaN                      NaN                      NaN                      NaN                      NaN
-0.25                     -1.97                    NaN                      NaN                      NaN                      NaN                      NaN                      NaN                      NaN                      NaN
-0.21999999999999997      -1.97                    NaN                      NaN                      NaN                      NaN                      NaN                      NaN                      NaN                      NaN