% Model:              C2DNSEps002PeEpsMin1.mph
% Version:            COMSOL 5.6.0.280
% Date:               Jun 3 2021, 17:52
% Dimension:          2
% Nodes:              4001
% Expressions:        5
% Description:        Velocity field, x component, Velocity field, y component, , , Gradient of c, y component
% Length unit:        m
% x                       y                        u (m/s)                  v (m/s)                  u2 (1)                   u2x (1/m)                u2y (1/m)
-1                        -0.5                     1                        -5.699157243350038E-15   1                        -4.5332950371346215E-7   3.552713678800501E-15
-0.999                    -0.5                     0.9999955787334296       -1.05469408718442E-7     0.9999999995249838       -4.96703119523545E-7     -2.184918912462308E-12
-0.998                    -0.5                     0.9999851478935018       -2.1076257939803224E-7   0.9999999990065938       -5.400767406626983E-7    -4.373390538603417E-12
-0.997                    -0.5                     0.9999687074802164       -3.158795177378618E-7    0.9999999984448302       -5.834503706836358E-7    -6.558309451065725E-12
-0.996                    -0.5                     0.9999462574935736       -4.208202237379708E-7    0.9999999978396932       -6.268239918227891E-7    -8.739675649849232E-12
-0.995                    -0.5                     0.999917797933573        -5.255846973983625E-7    0.999999997191182        -6.701976147382993E-7    -1.0935252703347942E-11
-0.994                    -0.5                     0.9998833288002155       -6.301729387189894E-7    0.9999999964992979       -7.1357124298288E-7      -1.3113066188452649E-11
-0.993                    -0.5                     0.9998428500935002       -7.34584947699761E-7     0.9999999957640398       -7.569448694511038E-7    -1.5301537814593758E-11
-0.992                    -0.5                     0.9997963618134273       -8.388207243409923E-7    0.9999999949854079       -8.003184941429708E-7    -1.7486456727056066E-11
-0.991                    -0.5                     0.999743863959997        -9.428802686424664E-7    0.9999999941634029       -8.436921161703026E-7    -1.9667822925839573E-11
-0.99                     -0.5                     0.9996853565332093       -1.0467635806041328E-6   0.9999999932980239       -8.870657453030617E-7    -2.185096548146248E-11
-0.989                    -0.5                     0.9996208395330639       -1.1504706602261507E-6   0.9999999923892711       -9.304393673303935E-7    -2.404121346444299E-11
-0.988                    -0.5                     0.9995503129595612       -1.2540015075083028E-6   0.9999999914371452       -9.738129960190633E-7    -2.6227908733744698E-11
-0.987                    -0.5                     0.999473776812701        -1.3573561224507606E-6   0.9999999904416453       -1.0171866251518225E-6   -2.8407498575688805E-11
-0.986                    -0.5                     0.9993912310924833       -1.4605345050534594E-6   0.9999999894027718       -1.0605602542845816E-6   -3.0594193844990514E-11
-0.985                    -0.5                     0.9993026757989081       -1.5635366553165117E-6   0.9999999883205248       -1.1039338690954636E-6   -3.278399773876117E-11
-0.984                    -0.5                     0.9992081109319753       -1.666362573239915E-6    0.9999999871949041       -1.147307494619998E-6    -3.496358758070528E-11
-0.983                    -0.5                     0.9991075364916852       -1.769012258823351E-6    0.9999999860259098       -1.1906811236972459E-6   -3.715028285000699E-11
-0.982                    -0.5                     0.9990009524780373       -1.8714857120672994E-6   0.9999999848135418       -1.2340547472788899E-6   -3.934719217113525E-11
-0.981                    -0.5                     0.9988883588910322       -1.97378293297133E-6     0.9999999835578002       -1.277428376411649E-6    -4.1529446548338456E-11
-0.98                     -0.5                     0.9987697557306694       -2.0759039215357657E-6   0.9999999822586851       -1.3208019931099102E-6   -4.3723247244997765E-11
-0.979                    -0.5                     0.9986451429969494       -2.177848677760397E-6    0.9999999809161964       -1.3641756275717398E-6   -4.5909942514299473E-11
-0.978                    -0.5                     0.9985145206898718       -2.2796172016452174E-6   0.999999979530334        -1.4075492531517853E-6   -4.807709785836778E-11
-0.977                    -0.5                     0.9983778888094366       -2.3812094931904988E-6   0.9999999781010978       -1.450922875179117E-6    -5.026734584134829E-11
-0.976                    -0.5                     0.9982352473556441       -2.482625552395968E-6    0.999999976628488        -1.4942964838837725E-6   -5.2443382969613594E-11
-0.975                    -0.5                     0.9980865963284938       -2.583865379261686E-6    0.9999999751125047       -1.5376701156810668E-6   -5.465849994834571E-11
-0.974                    -0.5                     0.9979319357279863       -2.684928973787595E-6    0.999999973553148        -1.5810437474783612E-6   -5.6836313433450414E-11
-0.973                    -0.5                     0.9977712655541212       -2.7858163359737217E-6   0.9999999719504172       -1.6244173810520124E-6   -5.901057420487632E-11
-0.972                    -0.5                     0.9976045858068988       -2.8865274658202525E-6   0.9999999703043133       -1.6677909862039542E-6   -6.119549311733863E-11
-0.971                    -0.5                     0.9974318964863186       -2.9870623633270306E-6   0.9999999686148352       -1.7111646268830327E-6   -6.339462288451614E-11
-0.97                     -0.5                     0.997253197592381        -3.087421028494054E-6    0.9999999668819838       -1.7545382515748997E-6   -6.557243636962085E-11
-0.969                    -0.5                     0.997068489125086        -3.187603461321348E-6    0.999999965105759        -1.7979118691613394E-6   -6.777511885047716E-11
-0.968                    -0.5                     0.9968779561049218       -3.2876003858823937E-6   0.9999999634983081       -1.3688565420038288E-6   -4.9896738652803914E-12
-0.967                    -0.5                     0.9966820440037892       -3.3874170315098664E-6   0.99999996206511         -1.4975396648153503E-6   -1.914418079761769E-11
-0.966                    -0.5                     0.9964806633402248       -3.4870688119568682E-6   0.9999999605032288       -1.626222782297801E-6    -3.334487300777939E-11
-0.965                    -0.5                     0.9962738141142284       -3.586555727223448E-6    0.9999999588126645       -1.754905924649248E-6    -4.751359079483188E-11
-0.964                    -0.5                     0.9960614963258005       -3.685877777309592E-6    0.999999956993417        -1.8835890261444874E-6   -6.166809772716918E-11
-0.963                    -0.5                     0.9958437099749404       -3.7850349622152727E-6   0.9999999550454864       -2.0122721684959344E-6   -7.58652372242358E-11
-0.962                    -0.5                     0.9956204550616485       -3.8840272819403935E-6   0.9999999529688727       -2.140955277096601E-6    -9.00357313681277E-11
-0.961                    -0.5                     0.9953917315859251       -3.982854736485169E-6    0.999999950763576        -2.2696383945790516E-6   -1.0420444915488834E-10
-0.96                     -0.5                     0.9951575395477696       -4.081517325849343E-6    0.9999999484295962       -2.3983215271605363E-6   -1.1837316694252457E-10
-0.959                    -0.5                     0.994917878947182        -4.180015050033062E-6    0.9999999459669328       -2.5270046561893064E-6   -1.325614246545186E-10
-0.958                    -0.5                     0.9946727497841629       -4.278347909036504E-6    0.9999999433755866       -2.6556877798890065E-6   -1.467106025163377E-10
-0.957                    -0.5                     0.9944221520587119       -4.3765159028592444E-6   0.9999999406555574       -2.784370904476885E-6    -1.6090152476417456E-10
-0.956                    -0.5                     0.9941660857708288       -4.474519031501402E-6    0.9999999378068446       -2.913054028620674E-6    -1.7507557162189117E-10
-0.955                    -0.5                     0.9939045509205139       -4.57235729496288E-6     0.999999934829449        -3.041737147435393E-6    -1.8924517758802007E-10
-0.954                    -0.5                     0.9936375475077673       -4.670030693244817E-6    0.9999999317233705       -3.170420257146283E-6    -2.0341167492916924E-10
-0.953                    -0.5                     0.9933650755325889       -4.7675392263455525E-6   0.9999999284886085       -3.2991033831219397E-6   -2.175922721023116E-10
-0.952                    -0.5                     0.9930871349949788       -4.8648828942662375E-6   0.9999999251251638       -3.42778650732124E-6     -2.3177309132049668E-10
-0.951                    -0.5                     0.9928037258949363       -4.962061697006438E-6    0.9999999216330356       -3.5564696349067207E-6   -2.4593603594800357E-10
-0.95                     -0.5                     0.9925148482324623       -5.059075634565829E-6    0.9999999180122247       -3.685152762381179E-6    -2.6011985276833687E-10
-0.949                    -0.5                     0.9922205020075564       -5.155924706944962E-6    0.9999999142627303       -3.8138358763109165E-6   -2.742867941986959E-10
-0.948                    -0.5                     0.9919206872202186       -5.252608914143514E-6    0.9999999103845529       -3.942518997346081E-6    -2.8845995287799285E-10
-0.947                    -0.5                     0.9916154038704488       -5.349128256161363E-6    0.9999999063776921       -4.071202131703922E-6    -3.02641105163213E-10
-0.946                    -0.5                     0.9913046519582476       -5.445482732998956E-6    0.9999999022421485       -4.199885251850908E-6    -3.168098229502655E-10
-0.945                    -0.5                     0.9909884314836143       -5.541672344656292E-6    0.9999998979779215       -4.328568379103322E-6    -3.3098386980812807E-10
-0.944                    -0.5                     0.9906667424465491       -5.637697091133034E-6    0.9999998935850118       -4.4572514930330595E-6   -3.451614693796694E-10
-0.943                    -0.5                     0.9903395848470521       -5.733556972429519E-6    0.9999998890634189       -4.585934614068224E-6    -3.593230817393643E-10
-0.942                    -0.5                     0.990006958685123        -5.829251988545976E-6    0.9999998844131427       -4.714617736879745E-6    -3.73504234023417E-10
-0.941                    -0.5                     0.9896688639607621       -5.924782139480879E-6    0.9999998796341831       -4.843300868573052E-6    -3.876765045253158E-10
-0.94                     -0.5                     0.9893253006739696       -6.020147425236166E-6    0.999999874726541        -4.971983986055502E-6    -4.0184877502546334E-10
-0.9390000000000001       -0.5                     0.9889762688247452       -6.1153478458101366E-6   0.9999998696902151       -5.100667115972433E-6    -4.160281509243661E-10
-0.938                    -0.5                     0.9886217684130889       -6.210383401204154E-6    0.9999998645252066       -5.229350244113044E-6    -4.301968687417722E-10
-0.937                    -0.5                     0.9882617994390008       -6.3052540914180565E-6   0.9999998592315148       -5.358033361595476E-6    -4.4436913921156616E-10
-0.9359999999999999       -0.5                     0.9878966656357534       -6.399962486298129E-6    0.9999998539229284       -5.383772226493601E-6    -4.6371850663883405E-10
-0.935                    -0.5                     0.9875265513219446       -6.494517428171882E-6    0.9999998484416157       -5.578853285796274E-6    -4.83874312165136E-10
-0.9339999999999999       -0.5                     0.9871514408790072       -6.588919314640992E-6    0.9999998427652217       -5.773934373520694E-6    -5.040301177498042E-10
-0.933                    -0.5                     0.9867713343069416       -6.683168145702979E-6    0.9999998368937468       -5.96901545413965E-6     -5.241930287028802E-10
-0.9319999999999999       -0.5                     0.9863862316057473       -6.7772639213607E-6      0.9999998308271909       -6.164096527653214E-6    -5.443559397149059E-10
-0.931                    -0.5                     0.9859961327754246       -6.871206641611289E-6    0.9999998245655537       -6.359177601166742E-6    -5.645152979537193E-10
-0.9299999999999999       -0.5                     0.985601037815974        -6.964996306457224E-6    0.999999818108836        -6.554258681785734E-6    -5.846657744678693E-10
-0.929                    -0.5                     0.9852009467273947       -7.058632915897066E-6    0.9999998114570366       -6.7493397561874405E-6   -6.048233563504271E-10
-0.9279999999999999       -0.5                     0.9847958595096866       -7.152116469929817E-6    0.9999998046101565       -6.944420832365541E-6    -6.249844910061971E-10
-0.927                    -0.5                     0.9843857761628498       -7.245446968557633E-6    0.9999997975681948       -7.13950191031996E-6     -6.451491783149451E-10
-0.926                    -0.5                     0.9839706966868853       -7.338624411780251E-6    0.9999997903311525       -7.334582985609863E-6    -6.652987666216381E-10
-0.925                    -0.5                     0.983550621081792        -7.431648799596068E-6    0.9999997828990291       -7.5296640613438565E-6   -6.85455460355543E-10
-0.924                    -0.5                     0.9831255493475702       -7.524520132005962E-6    0.9999997752718244       -7.724745143739188E-6    -7.056165949815462E-10
-0.923                    -0.5                     0.9826954814842199       -7.617238409011342E-6    0.9999997674495386       -7.919826223025892E-6    -7.25783502766402E-10
-0.922                    -0.5                     0.9822604174917418       -7.70980363060875E-6     0.9999997594321721       -8.1149072878797E-6      -7.459339792522809E-10
-0.921                    -0.5                     0.9818203573701346       -7.802215796802066E-6    0.9999997512197241       -8.309988377602503E-6    -7.66090922785445E-10
-0.92                     -0.5                     0.9813753011193987       -7.894474907589245E-6    0.999999742812195        -8.505069444232666E-6    -7.862515855661978E-10
-0.919                    -0.5                     0.9809252487395351       -7.986580962970952E-6    0.9999997342095852       -8.700150517968257E-6    -8.064085013442333E-10
-0.918                    -0.5                     0.9804702002305424       -8.078533962946068E-6    0.9999997254118939       -8.895231609245372E-6    -8.265656391678586E-10
-0.917                    -0.5                     0.9800101555924219       -8.170333907514748E-6    0.9999997164191219       -9.090312677429847E-6    -8.46740984648577E-10
-0.916                    -0.5                     0.9795451148251725       -8.261980796678785E-6    0.9999997072312686       -9.285393762489713E-6    -8.668825793487633E-10
-0.915                    -0.5                     0.9790750779287949       -8.353474630436368E-6    0.9999996978483344       -9.480474836003261E-6    -8.870419376179272E-10
-0.914                    -0.5                     0.9786000449032884       -8.44481540878869E-6     0.9999996882703189       -9.675555916622235E-6    -9.071977431731203E-10
-0.913                    -0.5                     0.9781200157486539       -8.53600313173474E-6     0.9999996784972227       -9.870636977701283E-6    -9.273766413675176E-10
-0.912                    -0.5                     0.977634990464891        -8.627037799275205E-6    0.9999996685290451       -1.0065718065425684E-5   -9.47520012425127E-10
-0.911                    -0.5                     0.9771449690519995       -8.717919411410201E-6    0.9999996583657864       -1.026079913361016E-5    -9.676598307687655E-10
-0.91                     -0.5                     0.9766499515099794       -8.808647968139091E-6    0.999999648007447        -1.0455880230216345E-5   -9.878476107467761E-10
-0.909                    -0.5                     0.9761499378388309       -8.899223469461915E-6    0.999999637454026        -1.0650961305506248E-5   -1.0079927581606411E-9
-0.908                    -0.5                     0.975644928038554        -8.989645915379024E-6    0.9999996267055241       -1.0846042371914367E-5   -1.028152116429805E-9
-0.907                    -0.5                     0.9751349221091488       -9.079915305890374E-6    0.9999996157619413       -1.1041123445427915E-5   -1.0483185801263264E-9
-0.906                    -0.5                     0.974619920050615        -9.170031640995915E-6    0.9999996046232772       -1.1236204527823245E-5   -1.0684779383949068E-9
-0.905                    -0.5                     0.9741000236373966       -9.259991066400698E-6    0.9999995937768128       -9.831863841964136E-6    -8.226367123336585E-10
-0.904                    -0.5                     0.9735756799391262       -9.349791331332738E-6    0.9999995837004636       -1.0320834088473605E-5   -9.032645170718408E-10
-0.903                    -0.5                     0.9730468143711972       -9.439443224741806E-6    0.9999995731351444       -1.0809804340312146E-5   -9.83871005535657E-10
-0.902                    -0.5                     0.97251342693361         -9.52894674662814E-6     0.9999995620808548       -1.1298774595703398E-5   -1.0644810467054452E-9
-0.901                    -0.5                     0.9719755176263646       -9.618301896990885E-6    0.999999550537595        -1.1787744829778372E-5   -1.1451195095885173E-9
-0.9                      -0.5                     0.9714330864494604       -9.707508675830822E-6    0.9999995385053653       -1.2276715078064198E-5   -1.225743761613021E-9
-0.899                    -0.5                     0.9708861334028981       -9.796567083148091E-6    0.9999995259841653       -1.276568533523181E-5    -1.3063822244980197E-9
-0.898                    -0.5                     0.9703346584866774       -9.885477118942393E-6    0.9999995129739945       -1.325465557996492E-5    -1.3869798311680057E-9
-0.897                    -0.5                     0.9697786617007985       -9.974238783212707E-6    0.999999499474854        -1.374362581581625E-5    -1.4676182940510777E-9
-0.896                    -0.5                     0.969218143045261        -1.0062852075960883E-5   0.9999994854867432       -1.423259605699665E-5    -1.54822655886788E-9
-0.895                    -0.5                     0.9686531025200652       -1.0151316997185581E-5   0.9999994710096618       -1.4721566301729761E-5   -1.6288650217490254E-9
-0.894                    -0.5                     0.9680835401252111       -1.023963354688781E-5    0.9999994560436105       -1.5210536561561908E-5   -1.7094821683500246E-9
-0.893                    -0.5                     0.9675094558606985       -1.0327801725066673E-5   0.9999994405885885       -1.569950681206818E-5    -1.7901135258028491E-9
-0.892                    -0.5                     0.9669308497265275       -1.041582153172256E-5    0.9999994246445968       -1.6188477054580844E-5   -1.870712020655108E-9
-0.891                    -0.5                     0.9663477217226984       -1.0503692966855948E-5   0.9999994082116347       -1.6677447315079125E-5   -1.9513402694834635E-9
-0.89                     -0.5                     0.9657600718492106       -1.0591416030466613E-5   0.9999993912897023       -1.7166417550763918E-5   -2.0319685183119394E-9
-0.889                    -0.5                     0.9651679001060645       -1.0678990722552358E-5   0.9999993738787993       -1.765538780598864E-5    -2.1125927703406576E-9
-0.888                    -0.5                     0.9645712064932604       -1.076641704311654E-5    0.9999993559789264       -1.8144358045059615E-5   -2.193209472850039E-9
-0.887                    -0.5                     0.9639699910107977       -1.085369499215681E-5    0.9999993375900835       -1.863332829467771E-5    -2.2738377216841743E-9
-0.886                    -0.5                     0.9633642536586766       -1.094082456967447E-5    0.99999931871227         -1.9122298534081754E-5   -2.354457532818506E-9
-0.885                    -0.5                     0.962753994436897        -1.1027805775670527E-5   0.9999992993454863       -1.961126879080527E-5    -2.4350826730156494E-9
-0.884                    -0.5                     0.9621392133454592       -1.1114638610141665E-5   0.9999992794897323       -2.0100239026656602E-5   -2.5157069250478595E-9
-0.883                    -0.5                     0.9615199103843631       -1.1201323073090372E-5   0.9999992591450082       -2.0589209280271497E-5   -2.596324071646932E-9
-0.882                    -0.5                     0.9608960855536083       -1.1287859164515893E-5   0.9999992383113138       -2.1078179523228257E-5   -2.6769483236772156E-9
-0.881                    -0.5                     0.9602677388531955       -1.1374246884418474E-5   0.9999992169886492       -2.1567149768849546E-5   -2.757569022989967E-9
-0.88                     -0.5                     0.9596348702831242       -1.146048623279704E-5    0.9999991951770143       -2.205612002601716E-5    -2.8382003804495346E-9
-0.879                    -0.5                     0.9589974798433945       -1.1546577209653857E-5   0.999999172876409        -2.254509027252663E-5    -2.918817527048607E-9
-0.878                    -0.5                     0.9583555675340063       -1.1632519814987288E-5   0.9999991500868337       -2.303406051193067E-5    -2.999441779073111E-9
-0.877                    -0.5                     0.9577091333549603       -1.1718314048798323E-5   0.9999991268082883       -2.352303075844014E-5    -3.080058925670257E-9
-0.876                    -0.5                     0.9570581773062551       -1.1803959911084822E-5   0.999999103040772        -2.401200100672597E-5    -3.1606867304161458E-9
-0.875                    -0.5                     0.956402699387892        -1.188945740185051E-5    0.9999990787842861       -2.4500971253235437E-5   -3.2413074297308236E-9
-0.874                    -0.5                     0.9557426995998706       -1.1974806521091797E-5   0.9999990540388296       -2.4989941494415837E-5   -3.3219281290416485E-9
-0.873                    -0.5                     0.9550783620044933       -1.2060009765251988E-5   0.9999990290420032       -2.5185068734888756E-5   -3.416325097671182E-9
-0.872                    -0.5                     0.9544099043085426       -1.2145068888159413E-5   0.9999990035682863       -2.576236536491337E-5    -3.515849583526218E-9
-0.871                    -0.5                     0.9537373102957287       -1.2229983481765669E-5   0.9999989775172725       -2.6339661980727135E-5   -3.6153705166752806E-9
-0.87                     -0.5                     0.953060579966052        -1.2314753546073397E-5   0.9999989508889622       -2.6916958608975393E-5   -3.714887897102959E-9
-0.869                    -0.5                     0.9523797133195125       -1.2399379081081176E-5   0.9999989236833553       -2.7494255228341877E-5   -3.814419488396911E-9
-0.868                    -0.5                     0.9516947103561099       -1.2483860086791551E-5   0.9999988959004517       -2.8071551863695563E-5   -3.913940421538268E-9
-0.867                    -0.5                     0.9510055710758447       -1.2568196563204462E-5   0.9999988675402516       -2.864884849194382E-5    -4.013464907391378E-9
-0.866                    -0.5                     0.9503122954787162       -1.265238851031673E-5    0.9999988386027546       -2.9226145102428514E-5   -4.112987616895354E-9
-0.865                    -0.5                     0.9496148835647251       -1.2736435928130195E-5   0.9999988090879613       -2.9803441732453132E-5   -4.212508550044416E-9
-0.864                    -0.5                     0.948913335333871        -1.2820338816644243E-5   0.9999987789958713       -3.038073836425411E-5    -4.3120365886189105E-9
-0.863                    -0.5                     0.9482076507861538       -1.2904097175861147E-5   0.9999987483264846       -3.0958034977403336E-5   -4.4115521926897496E-9
-0.862                    -0.5                     0.947497829921574        -1.298771100577806E-5    0.9999987170798015       -3.153533160831613E-5    -4.511080231264243E-9
-0.861                    -0.5                     0.946783872740131        -1.3071180306395086E-5   0.9999986852558213       -3.211262823301168E-5    -4.610604717125059E-9
-0.86                     -0.5                     0.9460657792418253       -1.3154505077715438E-5   0.9999986528545447       -3.2689924860815846E-5   -4.710124762087996E-9
-0.859                    -0.5                     0.9453435494266565       -1.323768531973576E-5    0.9999986198759716       -3.326722148506731E-5    -4.809644807056953E-9
-0.858                    -0.5                     0.9446171832946253       -1.3320721032457713E-5   0.9999985863201019       -3.3844518112871484E-5   -4.90918308743909E-9
-0.857                    -0.5                     0.9438866808457305       -1.34036122158796E-5     0.9999985521869355       -3.442181473523556E-5    -5.008692890597515E-9
-0.856                    -0.5                     0.9431520420799732       -1.3486358870003766E-5   0.9999985174764724       -3.499911136847982E-5    -5.108209826938873E-9
-0.855                    -0.5                     0.9424132669973528       -1.356896099482913E-5    0.9999984821887127       -3.557640799273128E-5    -5.207740974138318E-9
-0.854                    -0.5                     0.9416703555978697       -1.3651418590354209E-5   0.9999984463236565       -3.615370462053545E-5    -5.307268124534392E-9
-0.853                    -0.5                     0.9409233078815236       -1.3733731656582183E-5   0.9999984098813035       -3.67310012287997E-5     -5.406777511359183E-9
-0.852                    -0.5                     0.9401721238483144       -1.3815900193509909E-5   0.9999983728616538       -3.730829785615978E-5    -5.506296668149479E-9
-0.851                    -0.5                     0.9394168034982424       -1.3897924201140172E-5   0.9999983352647075       -3.788559449151347E-5    -5.6058353648630835E-9
-0.85                     -0.5                     0.9386573468313076       -1.397980367947033E-5    0.9999982970904652       -3.846289111620902E-5    -5.7053527452965414E-9
-0.849                    -0.5                     0.9378937538475098       -1.4061538628502155E-5   0.9999982583389255       -3.9040187736463676E-5   -5.8048719020849114E-9
-0.848                    -0.5                     0.9371260245468492       -1.414312904823579E-5    0.9999982190100895       -3.961748435760651E-5    -5.9043875061596035E-9
-0.847                    -0.5                     0.9363541589293256       -1.4224574938669503E-5   0.9999981791039568       -4.019478098763113E-5    -6.0039475191552805E-9
-0.846                    -0.5                     0.9355781569949391       -1.4305876299805263E-5   0.9999981386205274       -4.0772077606997606E-5   -6.103461346873132E-9
-0.845                    -0.5                     0.9347980187436897       -1.4387033131641241E-5   0.9999980975598015       -4.1349374238798574E-5   -6.202953858308912E-9
-0.844                    -0.5                     0.9340137441755774       -1.4468045434178971E-5   0.9999980559217791       -4.1926670865270486E-5   -6.302485449595159E-9
-0.843                    -0.5                     0.9332253332906021       -1.4548913207417558E-5   0.9999980137064598       -4.250396750417688E-5    -6.402006382740368E-9
-0.842                    -0.5                     0.9324328234871428       -1.4629635966407053E-5   0.9999979714936156       -3.9534694932396016E-5   -5.801094418992012E-9
-0.841                    -0.5                     0.9316366179134966       -1.4710211456867995E-5   0.9999979313269068       -4.079872300548469E-5    -6.094381143327922E-9
-0.84                     -0.5                     0.9308366991313893       -1.47906420538816E-5     0.9999978898961698       -4.206275108923149E-5    -6.387657209491958E-9
-0.839                    -0.5                     0.9300330671408205       -1.4870927757448475E-5   0.9999978472014045       -4.332677914988566E-5    -6.680929722957733E-9
-0.838                    -0.5                     0.9292257219417901       -1.4951068567566626E-5   0.9999978032426111       -4.459080723185611E-5    -6.974216447293644E-9
-0.837                    -0.5                     0.9284146635342988       -1.5031064484238208E-5   0.9999977580197902       -4.585483529961571E-5    -7.267506724327814E-9
-0.836                    -0.5                     0.9275998919183461       -1.5110915507461593E-5   0.9999977115329408       -4.71188633549408E-5     -7.560754368797838E-9
-0.835                    -0.5                     0.926781407093932        -1.5190621637237866E-5   0.9999976637820632       -4.83828914351349E-5     -7.854028658628163E-9
-0.834                    -0.5                     0.9259592090610568       -1.5270182873567273E-5   0.9999976147671579       -4.964691949223635E-5    -8.147311830227266E-9
-0.833                    -0.5                     0.9251332978197198       -1.5349599216447804E-5   0.9999975644882244       -5.0910947572430445E-5   -8.440598554563176E-9
-0.832                    -0.5                     0.9243036733699216       -1.5428870665880113E-5   0.9999975129452627       -5.217497562864372E-5    -8.733887055248216E-9