% Model:              C2EQPeEpsMin1Eps002.mph
% Version:            COMSOL 5.6.0.280
% Date:               Jun 4 2021, 09:47
% Dimension:          2
% Nodes:              4001
% Expressions:        10
% Description:        Velocity field, x component, Velocity field, y component, Dependent variable u3, Gradient of u3, x component, Gradient of u3, y component, , , , , 
% Length unit:        m
% x                       y                        u (m/s)                  v (m/s)                  u3 (1)                   u3x (1/m)                u3y (1/m)                -u*u3+0.1*u3x            u5 (1)                   u5x (1/m)                u5y (1/m)                -u*u5+0.1*u5x
-1                        -0.5                     1                        0                        1                        -4.3736174859532184E-7   0                        -1.000000043736175       0                        0                        0                        0
-0.999                    -0.5                     0.999996562309391        5.332214387592962E-7     0.9999999995457706       -4.7110613394831674E-7   -9.351375993902155E-12   -0.9999966089657766      0                        0                        0                        0
-0.998                    -0.5                     0.9999870369081214       1.064940519360822E-6     0.9999999990577877       -5.048598044964142E-7    -3.653211364896087E-12   -0.9999870864519017      0                        0                        0                        0
-0.997                    -0.5                     0.9999714237961911       1.5951572418102812E-6    0.999999998536051        -5.38613460833657E-7     2.091138541763128E-12    -0.99997147619363        0                        0                        0                        0
-0.996                    -0.5                     0.9999497229735999       2.1238716061076713E-6    0.999999997980561        -5.723671384871817E-7    7.764434174974778E-12    -0.9999497781909763      0                        0                        0                        0
-0.995                    -0.5                     0.9999219344403476       2.6510836122529717E-6    0.9999999973913167       -6.061207877189971E-7    1.3469704231210001E-11   -0.9999219924439467      0                        0                        0                        0
-0.994                    -0.5                     0.9998880581964351       3.1767932602462358E-6    0.9999999967683191       -6.398744440562399E-7    1.920161964012186E-11    -0.9998881189525604      0                        0                        0                        0
-0.993                    -0.5                     0.9998480942418617       3.7010005500874374E-6    0.9999999961115678       -6.736281030580178E-7    2.489356701999736E-11    -0.9998481577168304      0                        0                        0                        0
-0.992                    -0.5                     0.9998020425766275       4.22370548177655E-6      0.9999999954210629       -7.073817934791074E-7    3.0606053526033136E-11   -0.9998021087367761      0                        0                        0                        0
-0.991                    -0.5                     0.9997499032007326       4.7449080553136124E-6    0.9999999946968045       -7.411354272788228E-7    3.631121255997526E-11    -0.9997499720124061      0                        0                        0                        0
-0.99                     -0.5                     0.9996916761141769       5.2646082706985854E-6    0.9999999939387922       -7.74889099603277E-7     4.204046343360661E-11    -0.9996917475437479      0                        0                        0                        0
-0.989                    -0.5                     0.9996273613169601       5.782806127931482E-6     0.9999999931470259       -8.086427594932334E-7    4.7736851705709055E-11   -0.9996274353308157      0                        0                        0                        0
-0.988                    -0.5                     0.9995569588090828       6.299501627012316E-6     0.9999999923215066       -8.423964105014057E-7    5.345633261661667E-11    -0.9995570353736323      0                        0                        0                        0
-0.987                    -0.5                     0.9994804685905451       6.81469476794106E-6      0.9999999914622335       -8.761500846022168E-7    5.915449724557992E-11    -0.9994805476722227      0                        0                        0                        0
-0.986                    -0.5                     0.9993978906613462       7.328385550717802E-6     0.9999999905692066       -9.099037409394596E-7    6.487397815657317E-11    -0.9993979722266053      0                        0                        0                        0
-0.985                    -0.5                     0.9993092250214866       7.840573975342503E-6     0.9999999896424261       -9.436574079348433E-7    7.058635364012317E-11    -0.9993093090368081      0                        0                        0                        0
-0.984                    -0.5                     0.9992144716709661       8.351260041814977E-6     0.9999999886818914       -9.774110607193722E-7    7.629162369657247E-11    -0.9992145581028543      0                        0                        0                        0
-0.983                    -0.5                     0.9991137245010305       8.860475949442925E-6     0.9999999876890702       -1.0149679686746957E-6   8.371727176856882E-11    -0.9991138136978084      0                        0                        0                        0
-0.982                    -0.5                     0.9990071640889785       9.368309911829646E-6     0.999999986649611        -1.063949782949501E-6    9.168738456967207E-11    -0.9990072571468225      0                        0                        0                        0
-0.981                    -0.5                     0.9988947940196323       9.874766833675085E-6     0.9999999855611703       -1.11293163985687E-6     9.965039194350336E-11    -0.9988948908899246      0                        0                        0                        0
-0.98                     -0.5                     0.9987766142929924       1.0379846714979319E-5    0.9999999844237478       -1.1619134861060981E-6   1.0760984660369867E-10   -0.9987767149271446      0                        0                        0                        0
-0.979                    -0.5                     0.998652624909058        1.088354955574224E-5     0.9999999832373435       -1.2108953288026128E-6   1.1557995940488758E-10   -0.99865272925852        0                        0                        0                        0
-0.978                    -0.5                     0.9985228258678295       1.1385875355963933E-5    0.999999982001957        -1.2598771697227703E-6   1.2354119042185805E-10   -0.9985229338840897      0                        0                        0                        0
-0.977                    -0.5                     0.9983872171693071       1.188682411564424E-5     0.9999999807175891       -1.3088590141956418E-6   1.3150419779568935E-10   -0.998387328803896       0                        0                        0                        0
-0.976                    -0.5                     0.9982457988134905       1.2386395834783387E-5    0.9999999793842392       -1.3578408577803346E-6   1.394574352069093E-10    -0.9982459140179797      0                        0                        0                        0
-0.975                    -0.5                     0.9980985708003797       1.288459051338123E-5     0.9999999780019073       -1.4068226973682248E-6   1.474408706843241E-10    -0.9980986895263845      0                        0                        0                        0
-0.974                    -0.5                     0.9979455331299744       1.338140815143775E-5     0.9999999765705936       -1.4558045307388658E-6   1.5543052341081064E-10   -0.9979456553291559      0                        0                        0                        0
-0.973                    -0.5                     0.9977866858022756       1.3876848748953154E-5    0.9999999750902984       -1.5047863778762723E-6   1.634077416392929E-10    -0.9977868114263447      0                        0                        0                        0
-0.972                    -0.5                     0.9976220288172823       1.4370912305927158E-5    0.9999999735610209       -1.5537682241255006E-6   1.7135653815840899E-10   -0.9976221578179968      0                        0                        0                        0
-0.971                    -0.5                     0.9974515621749955       1.4863598822360015E-5    0.9999999719827618       -1.6027500739274424E-6   1.7931599281847585E-10   -0.9974516945041649      0                        0                        0                        0
-0.97                     -0.5                     0.9972752858754136       1.5354908298251478E-5    0.9999999703555207       -1.6517318917549613E-6   1.8723636762820435E-10   -0.9972754214848961      0                        0                        0                        0
-0.969                    -0.5                     0.9970931999185381       1.5844840733601738E-5    0.999999968679298        -1.7007137451096167E-6   1.9524200756618126E-10   -0.9970933387602536      0                        0                        0                        0
-0.968                    -0.5                     0.9969053043043684       1.633339612841072E-5     0.9999999669540932       -1.749695570042563E-6    2.031979095125693E-10    -0.9969054463302855      0                        0                        0                        0
-0.967                    -0.5                     0.9967116580812234       1.6820572829779397E-5    0.9999999652053437       -1.7584141413661354E-6   1.956774655608156E-10    -0.9967117992423979      0                        0                        0                        0
-0.966                    -0.5                     0.9965124661694211       1.7306430292003702E-5    0.9999999634034342       -1.8454048694529224E-6   2.1730446619289913E-10   -0.996512614240974       0                        0                        0                        0
-0.965                    -0.5                     0.9963077390044317       1.7790989416476992E-5    0.999999961514534        -1.932395572670714E-6    2.3888883426137835E-10   -0.9963078939006212      0                        0                        0                        0
-0.964                    -0.5                     0.996097476586255        1.827425020319908E-5     0.9999999595386433       -2.019386293652074E-6    2.605193876074113E-10    -0.996097638221429       0                        0                        0                        0
-0.963                    -0.5                     0.9958816789148909       1.875621265217015E-5     0.9999999574757615       -2.1063770093043637E-6   2.821037556756199E-10    -0.9958818472034818      0                        0                        0                        0
-0.962                    -0.5                     0.9956603459903397       1.923687676339012E-5     0.999999955325889        -2.1933677444965785E-6   3.03755625303455E-10     -0.9956605208468733      0                        0                        0                        0
-0.961                    -0.5                     0.9954334778126012       1.9716242536858753E-5    0.9999999530890261       -2.2803584592606896E-6   3.253506515129706E-10    -0.9954336591516931      0                        0                        0                        0
-0.96                     -0.5                     0.9952010743816754       2.0194309972576507E-5    0.9999999507651723       -2.3673491713602655E-6   3.4697010262892647E-10   -0.995201262118039       0                        0                        0                        0
-0.959                    -0.5                     0.9949631356975623       2.067107907054328E-5     0.9999999483543276       -2.4543398981147857E-6   3.6858244831671277E-10   -0.994963329746012       0                        0                        0                        0
-0.958                    -0.5                     0.994719661760262        2.1146549830758526E-5    0.9999999458564923       -2.5413306097702724E-6   3.9019434991613507E-10   -0.9947198620357114      0                        0                        0                        0
-0.957                    -0.5                     0.9944706525697746       2.162072225322286E-5     0.9999999432716664       -2.628321342297951E-6    4.118142451220789E-10    -0.994470858987246       0                        0                        0                        0
-0.956                    -0.5                     0.9942161081260997       2.2093596337936436E-5    0.9999999405998498       -2.7153120774901663E-6   4.3341104768748666E-10   -0.9942163206007213      0                        0                        0                        0
-0.955                    -0.5                     0.9939560284292378       2.256517208489881E-5     0.9999999378410424       -2.80230279669517E-6     4.550167320372267E-10    -0.9939562468762467      0                        0                        0                        0
-0.954                    -0.5                     0.9936904134791883       2.3035449494110013E-5    0.9999999349952441       -2.8892935105711026E-6   4.76636627242494E-10     -0.9936906378139366      0                        0                        0                        0
-0.953                    -0.5                     0.9934192632759519       2.3504428565569904E-5    0.9999999320624554       -2.9762842137888947E-6   4.98249417019321E-10     -0.9934194934139077      0                        0                        0                        0
-0.952                    -0.5                     0.9931425778195279       2.3972109299278663E-5    0.9999999290426755       -3.0632749596392497E-6   5.198622067977719E-10    -0.9931428136762837      0                        0                        0                        0
-0.951                    -0.5                     0.9928603713531802       2.4438494451771477E-5    0.9999999259386122       -3.1433187568592373E-6   5.431374637267121E-10    -0.9928606121524388      0                        0                        0                        0
-0.95                     -0.5                     0.9925728280324311       2.490365649198985E-5     0.9999999227392723       -3.255361354799095E-6    5.710601199407149E-10    -0.9925730768816676      0                        0                        0                        0
-0.949                    -0.5                     0.9922800005491597       2.5367627062758085E-5    0.9999999194278896       -3.3674040095823718E-6   5.989614598715622E-10    -0.9922802573394669      0                        0                        0                        0
-0.948                    -0.5                     0.9919818889033665       2.5830406164075803E-5    0.9999999160044644       -3.4794466394966535E-6   6.268983269381146E-10    -0.9919821535259803      0                        0                        0                        0
-0.947                    -0.5                     0.991678493095051        2.6291993795942914E-5    0.9999999124689962       -3.59148928895086E-6     6.548103250099983E-10    -0.991678765441366       0                        0                        0                        0
-0.946                    -0.5                     0.991369813124213        2.675238995835958E-5     0.9999999088214855       -3.703531911759714E-6    6.827365339365971E-10    -0.9913700930857774      0                        0                        0                        0
-0.945                    -0.5                     0.9910558489908535       2.7211594651325316E-5    0.9999999050619324       -3.815574549667601E-6    7.106645192200352E-10    -0.9910561364593813      0                        0                        0                        0
-0.944                    -0.5                     0.9907366006949716       2.7669607874840547E-5    0.9999999011903365       -3.927617200898164E-6    7.385898399682821E-10    -0.9907368955623416      0                        0                        0                        0
-0.943                    -0.5                     0.9904120682365677       2.8126429628905322E-5    0.9999998972066978       -4.039659837806851E-6    7.665018380401403E-10    -0.9904123703948244      0                        0                        0                        0
-0.942                    -0.5                     0.9900822516156417       2.8582059913519233E-5    0.9999998931110169       -4.151702471384868E-6    7.944138361124553E-10    -0.9900825609570038      0                        0                        0                        0
-0.941                    -0.5                     0.9897471508321936       2.9036498728682936E-5    0.9999998889032928       -4.263745107516398E-6    8.22324946005987E-10     -0.9897474672490548      0                        0                        0                        0
-0.94                     -0.5                     0.9894067658862233       2.9489746074395696E-5    0.9999998845835264       -4.375787756970605E-6    8.50247602218907E-10     -0.9894070892711592      0                        0                        0                        0
-0.9390000000000001       -0.5                     0.9890610967777311       2.9941801950658156E-5    0.9999998801517176       -4.487830390437567E-6    8.782022329069102E-10    -0.9890614270234965      0                        0                        0                        0
-0.938                    -0.5                     0.9887101435067166       3.0392666357470057E-5    0.9999998756078657       -4.5998730274573075E-6   9.061071254994622E-10    -0.9887104805062544      0                        0                        0                        0
-0.937                    -0.5                     0.98835390607318         3.084233929483127E-5     0.9999998709519716       -4.711915657371557E-6    9.340475453327502E-10    -0.9883542497196228      0                        0                        0                        0
-0.9359999999999999       -0.5                     0.9879923844771215       3.129082076274191E-5     0.9999998661840345       -4.823958251758733E-6    9.619275689295507E-10    -0.9879927346637918      0                        0                        0                        0
-0.935                    -0.5                     0.9876255795281524       3.1738110407579136E-5    0.99999986130627         -4.817954885456731E-6    9.363795355171311E-10    -0.9876259243461656      0                        0                        0                        0
-0.9339999999999999       -0.5                     0.9872536633711445       3.218422395758491E-5     0.9999998563937113       -5.007162197703616E-6    1.0019731020723537E-9    -0.9872540223115297      0                        0                        0                        0
-0.933                    -0.5                     0.9868767189843671       3.2629212758102344E-5    0.9999998512919455       -5.196369566793707E-6    1.067573774399161E-9     -0.9868770918648069      0                        0                        0                        0
-0.9319999999999999       -0.5                     0.9864947463678195       3.3073076809131605E-5    0.9999998460009721       -5.38557691456773E-6     1.13319220994746E-9      -0.986495133006279       0                        0                        0                        0
-0.931                    -0.5                     0.9861077455215022       3.35158161106723E-5      0.9999998405207916       -5.5747843156322435E-6   1.1987573551392629E-9    -0.986108145736251       0                        0                        0                        0
-0.9299999999999999       -0.5                     0.9857157164454148       3.395743066272513E-5     0.9999998348514036       -5.763991661629909E-6    1.2643828961158111E-9    -0.985716130055014       0                        0                        0                        0
-0.929                    -0.5                     0.9853186591395576       3.4397920465289665E-5    0.999999828992808        -5.953199018285503E-6    1.3299658048733327E-9    -0.9853190859628823      0                        0                        0                        0
-0.9279999999999999       -0.5                     0.9849165736039305       3.48372855183658E-5      0.9999998229450054       -6.142406400698483E-6    1.3955691413907262E-9    -0.9849170134601719      0                        0                        0                        0
-0.927                    -0.5                     0.984509459838534        3.5275525821953616E-5    0.9999998167079954       -6.331613745807757E-6    1.461144167565191E-9     -0.9845099125471961      0                        0                        0                        0
-0.926                    -0.5                     0.9840973178433671       3.571264137605313E-5     0.999999810281778        -6.520821107792527E-6    1.5267616040864698E-9    -0.9840977832242844      0                        0                        0                        0
-0.925                    -0.5                     0.9836801476184305       3.6148632180664385E-5    0.9999998036663532       -6.710028469777298E-6    1.5923649407753079E-9    -0.9836806254917668      0                        0                        0                        0
-0.924                    -0.5                     0.9832579491637242       3.658349823578768E-5     0.999999796861721        -6.899235817551214E-6    1.6579904819244157E-9    -0.9832584393499784      0                        0                        0                        0
-0.923                    -0.5                     0.9828307224792481       3.701723954142221E-5     0.9999997898678816       -7.088443202628622E-6    1.723573390512499E-9     -0.9828312247992665      0                        0                        0                        0
-0.922                    -0.5                     0.9823984675650017       3.744985609756818E-5     0.9999997826848347       -7.277650569942461E-6    1.7891669572416188E-9    -0.9823989818399733      0                        0                        0                        0
-0.921                    -0.5                     0.981961184420986        3.788134790422683E-5     0.9999997753125807       -7.466857928374519E-6    1.8547747348192113E-9    -0.9819617104724545      0                        0                        0                        0
-0.92                     -0.5                     0.9815188730472          3.8311714961396245E-5    0.999999767751119        -7.656065293912003E-6    1.9203683015492228E-9    -0.9815194106970694      0                        0                        0                        0
-0.919                    -0.5                     0.9810715334436442       3.8740957269078396E-5    0.9999997600004498       -7.845272641685917E-6    1.9859760791303827E-9    -0.9810720825141815      0                        0                        0                        0
-0.918                    -0.5                     0.9806192472804113       3.916910007511343E-5     0.9999997520668774       -8.039924011615415E-6    2.062969901518419E-9     -0.9806198081448204      0                        0                        0                        0
-0.917                    -0.5                     0.9801621569462807       3.95962058015153E-5      0.9999997439147684       -8.264294293255302E-6    2.1433460043715825E-9    -0.9801627323706571      0                        0                        0                        0
-0.916                    -0.5                     0.9797002640822906       4.0022277308154295E-5    0.9999997355382889       -8.488664582000616E-6    2.223693685511748E-9     -0.9797008538555406      0                        0                        0                        0
-0.915                    -0.5                     0.9792335686884416       4.044731459503139E-5     0.9999997269374395       -8.713034881404075E-6    2.3040626829322026E-9    -0.9792341725999042      0                        0                        0                        0
-0.914                    -0.5                     0.9787620707647328       4.087131766214536E-5     0.9999997181122192       -8.937405177254816E-6    2.384431680357117E-9     -0.9787626886041825      0                        0                        0                        0
-0.913                    -0.5                     0.9782857703111653       4.129428650949659E-5     0.999999709062629        -9.161775467776487E-6    2.4647846905682465E-9    -0.978286401868822       0                        0                        0                        0
-0.912                    -0.5                     0.977804667327738        4.1716221137085814E-5    0.9999996997886681       -9.38614575829816E-6     2.5451572407041636E-9    -0.9778053123942723      0                        0                        0                        0
-0.911                    -0.5                     0.9773187618144519       4.213712154491233E-5     0.9999996902903373       -9.610516047931654E-6    2.625496928238998E-9     -0.9773194201809926      0                        0                        0                        0
-0.91                     -0.5                     0.9768280537713065       4.255698773297574E-5     0.9999996805676363       -9.834886355772804E-6    2.705899676442969E-9     -0.976828725229448       0                        0                        0                        0
-0.909                    -0.5                     0.9763325431983019       4.2975819701276956E-5    0.9999996706205646       -1.0059256645850388E-5   2.786230482193606E-9     -0.9763332275401045      0                        0                        0                        0
-0.908                    -0.5                     0.975832230095438        4.339361744981579E-5     0.999999660449123        -1.0283626939924772E-5   2.8665781633342177E-9    -0.9758329271134425      0                        0                        0                        0
-0.907                    -0.5                     0.9753271144627147       4.381038097859164E-5     0.9999996500533108       -1.0507997225117375E-5   2.9469222917624883E-9    -0.9753278239499426      0                        0                        0                        0
-0.906                    -0.5                     0.9748171963001323       4.4226110287605E-5       0.9999996394331285       -1.073236751919176E-5    3.027355238030945E-9     -0.9748179180500975      0                        0                        0                        0
-0.905                    -0.5                     0.9743024756076906       4.464080537685568E-5     0.9999996285885759       -1.0956737829253357E-5   3.1077242354540755E-9    -0.9743032094144035      0                        0                        0                        0
-0.904                    -0.5                     0.9737829523853898       4.5054466246343894E-5    0.9999996175196529       -1.1181108139314953E-5   3.188015073177164E-9     -0.9737836980433622      0                        0                        0                        0
-0.903                    -0.5                     0.9732586266332297       4.5467092896069455E-5    0.9999996062263594       -1.140547842806027E-5    3.2683840705994023E-9    -0.9732593839374799      0                        0                        0                        0
-0.902                    -0.5                     0.9727295506893079       4.587868455941211E-5     0.9999995948001558       -1.1493249178646556E-5   3.2835470041951356E-9    -0.9727303058643634      0                        0                        0                        0
-0.901                    -0.5                     0.9721959021254579       4.62892839209495E-5      0.9999995831253465       -1.1856369627444998E-5   3.4523014368396233E-9    -0.9721966824785908      0                        0                        0                        0
-0.9                      -0.5                     0.9716576907190934       4.669890482717643E-5     0.9999995710874165       -1.2219490012294592E-5   3.6209563935103876E-9    -0.9716584959118842      0                        0                        0                        0
-0.899                    -0.5                     0.9711149164702138       4.710754727809292E-5     0.9999995586863663       -1.258261045043489E-5    3.789732142441589E-9     -0.9711157461650062      0                        0                        0                        0
-0.898                    -0.5                     0.9705675793788195       4.751521127369891E-5     0.9999995459221955       -1.2945730851271696E-5   3.958429731669537E-9     -0.9705684332387092      0                        0                        0                        0
-0.897                    -0.5                     0.9700156794449107       4.792189681399438E-5     0.9999995327949046       -1.330885128763564E-5    4.127162848037754E-9     -0.9700165571337714      0                        0                        0                        0
-0.896                    -0.5                     0.9694592166684871       4.832760389897921E-5     0.9999995193044933       -1.3671971704459655E-5   4.295871095410219E-9     -0.9694601178509682      0                        0                        0                        0