% Model:              C2EQPeEpsMin1Eps002.mph
% Version:            COMSOL 5.6.0.280
% Date:               Jun 4 2021, 09:47
% Dimension:          2
% Nodes:              3001
% Expressions:        8
% Description:        Velocity field, x component, Velocity field, y component, Dependent variable u3, Gradient of u3, x component, Gradient of u3, y component, , , 
% Length unit:        m
% x                       y                        u (m/s)                  v (m/s)                  u3 (1)                   u3x (1/m)                u3y (1/m)                u5 (1)                   u5x (1/m)                u5y (1/m)
0                         -2                       1.1020911794239923       -0.6343443783729935      0.04421820993450724      0.18367273449399038      2.153922853517255        0                        0                        0
0                         -1.999                   1.101215116704441        -0.6343453325455277      0.04635167169113341      0.19274127924386175      2.113000659736056        0                        0                        0
0                         -1.998                   1.1003434073270244       -0.6343453922231065      0.04844421125397934      0.20165130915189156      2.0720784659548377       0                        0                        0
0                         -1.997                   1.0994760512917428       -0.6343445574057299      0.05049582862304358      0.21040283304542057      2.031156272173631        0                        0                        0
0                         -1.996                   1.0986130485985954       -0.6343428280933977      0.0525065237983266       0.21899585975114969      1.990234078392424        0                        0                        0
0                         -1.995                   1.097754399247583        -0.63434020428611        0.05447629677982821      0.22743039809514062      1.949311884611221        0                        0                        0
0                         -1.994                   1.096900103238705        -0.6343366859838668      0.056405147567548816     0.235706456902737        1.9083896908300113       0                        0                        0
0                         -1.993                   1.0960501605719617       -0.6343322731866684      0.05829307616148823      0.24382404499872098      1.8674674970488043       0                        0                        0
0                         -1.992                   1.0952045712473533       -0.6343269658945144      0.060140082561646845     0.25178317120711463      1.8265453032675876       0                        0                        0
0                         -1.991                   1.0943633352648794       -0.6343207641074049      0.061946166768023427     0.259583844351366        1.7856231094863877       0                        0                        0
0                         -1.99                    1.0935264526245403       -0.6343136678253402      0.06371132878061941      0.2672260732542482       1.7447009157051756       0                        0                        0
0                         -1.989                   1.0926939233263357       -0.6343056770483196      0.0654355685994338       0.2747098667378511       1.7037787219239724       0                        0                        0
0                         -1.988                   1.0918657473702658       -0.6342967917763438      0.06711888622446735      0.28203523362362726      1.6628565281427592       0                        0                        0
0                         -1.987                   1.0910419247563306       -0.6342870120094125      0.06876128165571932      0.289202182732391        1.6219343343615562       0                        0                        0
0                         -1.986                   1.0902224554845301       -0.6342763377475258      0.07036275489319045      0.296210722884274        1.5810121405803443       0                        0                        0
0                         -1.985                   1.0894073395548645       -0.6342647689906835      0.07192330593688002      0.3030608628987718       1.5400899467991405       0                        0                        0
0                         -1.984                   1.0885965769673331       -0.6342523057388859      0.07344293478678873      0.3097526115947275       1.499167753017928        0                        0                        0
0                         -1.983                   1.0877901677219368       -0.6342389479921327      0.0749216414429159       0.316285977790301        1.4582455592367236       0                        0                        0
0                         -1.982                   1.0869881118186748       -0.6342246957504241      0.07635942590526217      0.3226609703030304       1.4173233654555097       0                        0                        0
0                         -1.981                   1.0861904092575478       -0.63420954901376        0.07775628817382693      0.3288775979498106       1.376401171674307        0                        0                        0
0                         -1.98                    1.0853970598701606       -0.6341935077720223      0.07911225674662749      0.3349360663195513       1.364210897469113        0                        0                        0
0                         -1.979                   1.0846076894054146       -0.6341765482723446      0.08046797249255154      0.3410593800955333       1.3472205943788245       0                        0                        0
0                         -1.978                   1.0838222629266165       -0.6341586671524881      0.08180669793538545      0.34707545512680205      1.33023029128853         0                        0                        0
0                         -1.977                   1.0830407804337672       -0.634139864412453       0.08312843307512834      0.35298575262939996      1.3132399881982448       0                        0                        0
0                         -1.976                   1.0822632419268645       -0.6341201400522386      0.08443317791178205      0.35879170739233074      1.2962496851079457       0                        0                        0
0                         -1.975                   1.081489647405911        -0.6340994940718456      0.08572093244534443      0.3644947283723246       1.2792593820176594       0                        0                        0
0                         -1.974                   1.080719996870905        -0.6340779264712739      0.08699169667581709      0.3700961992727093       1.2622690789273674       0                        0                        0
0                         -1.973                   1.0799542903218475       -0.6340554372505234      0.08824547060319919      0.3755974791064791       1.2452787758370782       0                        0                        0
0                         -1.972                   1.0791925277587378       -0.6340320264095938      0.08948225422749138      0.380999902744718        1.2282884727467844       0                        0                        0
0                         -1.971                   1.0784347091815762       -0.6340076939484857      0.09070204754869304      0.3863047814502758       1.2112981696564944       0                        0                        0
0                         -1.97                    1.0776808345903626       -0.6339824398671985      0.09190485056680425      0.39151340339730184      1.194307866566204        0                        0                        0
0                         -1.969                   1.0769309039850972       -0.6339562641657325      0.09309066328182516      0.3966270341772654       1.1773175634759157       0                        0                        0
0                         -1.968                   1.0761849173657796       -0.6339291668440877      0.09425948569375607      0.4016469172917273       1.1603272603856227       0                        0                        0
0                         -1.967                   1.0754428747324103       -0.6339011479022642      0.09541131780259642      0.40657427463203266      1.143336957295334        0                        0                        0
0                         -1.966                   1.0747047760849888       -0.6338722073402617      0.09654615960834673      0.4114103069468647       1.1263466542050409       0                        0                        0
0                         -1.965                   1.0739706214235156       -0.6338423451580805      0.0976640111110065       0.4161561942975251       1.1093563511147537       0                        0                        0
0                         -1.964                   1.0732404107479903       -0.6338115613557204      0.09876487231057623      0.4208130965015272       1.0923660480244606       0                        0                        0
0                         -1.963                   1.0725141440584132       -0.6337798559331815      0.09984874320705543      0.4253821535648257       1.0753757449341699       0                        0                        0
0                         -1.962                   1.071791821354784        -0.6337472288904638      0.10091562380044458      0.42986448610308675      1.0583854418438785       0                        0                        0
0                         -1.961                   1.071073442637103        -0.6337136802275671      0.10196551409074318      0.43426119575221345      1.0413951387535882       0                        0                        0
0                         -1.96                    1.0703590076906624       -0.6336792099318951      0.10299844015623388      0.43857347632931565      1.0375566169022685       0                        0                        0
0                         -1.959                   1.0696482184000076       -0.6336438016734163      0.10403307053145697      0.44287378486151424      1.0317041335438744       0                        0                        0
0                         -1.958                   1.068940993139628        -0.6336074518187308      0.10506184842332159      0.4471225839364293       1.0258516501854775       0                        0                        0
0                         -1.957                   1.0682373319095237       -0.6335701603678385      0.10608477383182771      0.4513199831953716       1.0199991668270834       0                        0                        0
0                         -1.956                   1.0675372347096952       -0.63353192732074        0.10710184675697573      0.4554660919688007       1.0141466834686845       0                        0                        0
0                         -1.955                   1.066840701540142        -0.6334927526774349      0.10811306719876533      0.4595610192773115       1.0082942001102915       0                        0                        0
0                         -1.954                   1.0661477324008641       -0.633452636437923       0.10911843515719648      0.46360487383272486      1.0024417167518922       0                        0                        0
0                         -1.953                   1.0654583272918619       -0.6334115786022045      0.11011795063226895      0.46759776403921843      0.9965892333934974       0                        0                        0
0                         -1.952                   1.0647724862131347       -0.6333695791702796      0.11111161362398335      0.47153979799440776      0.9907367500351008       0                        0                        0
0                         -1.951                   1.0640902091646833       -0.6333266381421481      0.11209942413233916      0.47543108349034147      0.9848842666767056       0                        0                        0
0                         -1.95                    1.063411496146507        -0.6332827555178099      0.11308138215733678      0.4792717280147868       0.9790317833183091       0                        0                        0
0                         -1.949                   1.0627363471586064       -0.6332379312972652      0.11405748769897588      0.48306183875203484      0.9731792999599145       0                        0                        0
0                         -1.948                   1.0620647622009813       -0.6331921654805138      0.1150277407572567       0.4868015225842242       0.9673268166015162       0                        0                        0
0                         -1.947                   1.0613967412736316       -0.633145458067556       0.11599214133217892      0.4904908860922128       0.9614743332431198       0                        0                        0
0                         -1.946                   1.0607322843765574       -0.6330978090583914      0.11695068942374273      0.4941300355567665       0.9556218498847251       0                        0                        0
0                         -1.945                   1.0600713915097584       -0.6330492184530204      0.11790338503194837      0.49771907695951656      0.9497693665263304       0                        0                        0
0                         -1.944                   1.0594140626732351       -0.6329996862514428      0.1188502281567954       0.5012581159840888       0.943916883167934        0                        0                        0
0                         -1.943                   1.058760297866987        -0.6329492124536584      0.11979121879828424      0.5047472580171058       0.9380643998095376       0                        0                        0
0                         -1.942                   1.0581100970910147       -0.6328977970596678      0.12072635695641447      0.5081866081492359       0.9322119164511411       0                        0                        0
0                         -1.941                   1.0574634603453175       -0.6328454400694703      0.12165564263118651      0.5115762711762486       0.9263594330927428       0                        0                        0
0                         -1.94                    1.0568203873944297       -0.63279214146231        0.12257909487565204      0.5149163821546943       0.9269151128094045       0                        0                        0
0                         -1.939                   1.0561806214998204       -0.6327378874914368      0.12350565855119211      0.5182292975496222       0.926212238270539        0                        0                        0
0                         -1.938                   1.05554406447426         -0.6326826783336782      0.12443151935219313      0.5215167264739178       0.9255093637316755       0                        0                        0
0                         -1.937                   1.0549107163177485       -0.6326265139890342      0.12535667727865546      0.524778564500871        0.92480648919281         0                        0                        0
0                         -1.936                   1.0542805770302857       -0.6325693944575049      0.12628113233057875      0.5280147066324636       0.9241036146539447       0                        0                        0
0                         -1.935                   1.0536536466118718       -0.6325113197390902      0.12720488450796336      0.5312250472955432       0.9234007401150793       0                        0                        0
0                         -1.934                   1.0530299250625068       -0.6324522898337903      0.1281279338108089       0.5344094803378374       0.9226978655762157       0                        0                        0
0                         -1.933                   1.0524094123821905       -0.6323923047416049      0.1290502802391158       0.5375678990239131       0.9219949910373486       0                        0                        0
0                         -1.932                   1.051792108570923        -0.6323313644625342      0.1299719237928838       0.5407001960312509       0.9212921164984832       0                        0                        0
0                         -1.931                   1.0511780136287046       -0.632269468996578       0.13089286447211276      0.5438062634462051       0.9205892419596197       0                        0                        0
0                         -1.93                    1.0505671275555348       -0.6322066183437367      0.13181310227680293      0.5468859927597298       0.9198863674207516       0                        0                        0
0                         -1.929                   1.049959450351414        -0.6321428125040097      0.13273263720695405      0.5499392748637102       0.9191834928818889       0                        0                        0
0                         -1.928                   1.049354982016342        -0.6320780514773976      0.13365146926256682      0.5529660000463111       0.9184806183430209       0                        0                        0
0                         -1.927                   1.048753722550319        -0.6320123352639002      0.1345695984436402       0.5559660579880971       0.9177777438041581       0                        0                        0
0                         -1.926                   1.0481556719533445       -0.6319456638635172      0.13548702475017516      0.5589393377578573       0.91707486926529         0                        0                        0
0                         -1.925                   1.0475608302254191       -0.631878037276249       0.13640374818217074      0.5618857278080625       0.916371994726427        0                        0                        0
0                         -1.924                   1.0469691973665425       -0.6318094555020956      0.13731976873962787      0.5648051159708236       0.9156691201875622       0                        0                        0
0                         -1.923                   1.0463807733767143       -0.6317399185410565      0.13823508642254592      0.5676973894537094       0.9149662456486953       0                        0                        0
0                         -1.922                   1.0457955582559355       -0.6316694263931321      0.13914970123092535      0.57056243483497         0.9142633711098267       0                        0                        0
0                         -1.921                   1.0452135520042056       -0.6315979790583225      0.14006361316476543      0.5734001380594438       0.9135604965709678       0                        0                        0
0                         -1.92                    1.0446347544228132       -0.631525576515733       0.14097683407680375      0.576210425681428        0.9158485676281403       0                        0                        0
0                         -1.919                   1.0440589493888561       -0.6314522089288428      0.14189350910309467      0.5790096891780815       0.9175014849535087       0                        0                        0
0                         -1.918                   1.0434860216289104       -0.6313778769635163      0.14281183704671085      0.5817937170785773       0.9191544022788766       0                        0                        0
0                         -1.917                   1.0429159711429772       -0.6313025806197543      0.1437318179076522       0.5845625537030581       0.9208073196042432       0                        0                        0
0                         -1.916                   1.042348797931055        -0.631226319897556       0.1446534516859194       0.5873162431998813       0.9224602369296099       0                        0                        0
0                         -1.915                   1.0417845019931453       -0.6311490947969216      0.1455767383815114       0.5900548295465213       0.9241131542549744       0                        0                        0
0                         -1.914                   1.0412230833292473       -0.6310709053178515      0.1465016779944294       0.5927783565504016       0.9257660715803449       0                        0                        0
0                         -1.913                   1.0406645419393614       -0.6309917514603454      0.14742827052467225      0.5954868678495865       0.927418988905712        0                        0                        0
0                         -1.912                   1.040108877823487        -0.6309116332244032      0.1483565159722408       0.5981804069138295       0.929071906231076        0                        0                        0
0                         -1.911                   1.039556090981625        -0.6308305506100252      0.1492864143371344       0.6008590170451946       0.9307248235564423       0                        0                        0
0                         -1.91                    1.0390061814137745       -0.6307485036172112      0.15021796561935363      0.6035227413788402       0.9323777408818101       0                        0                        0
0                         -1.909                   1.038459149119936        -0.6306654922459611      0.1511511698188981       0.6061716228840931       0.9340306582071752       0                        0                        0
0                         -1.908                   1.0379149941001096       -0.6305815164962753      0.15208602693576787      0.6088057043649133       0.9356835755325436       0                        0                        0
0                         -1.907                   1.0373737163542949       -0.6304965763681533      0.1530225369699632       0.6114250284609043       0.9373364928579097       0                        0                        0
0                         -1.906                   1.0368353158824921       -0.6304106718615955      0.15396069992148367      0.6140296376479691       0.9389894101832754       0                        0                        0
0                         -1.905                   1.0362997926847013       -0.6303238029766016      0.15490051579032973      0.6166195742392439       0.9406423275086423       0                        0                        0
0                         -1.904                   1.0357671467609224       -0.6302359697131719      0.15584198457650097      0.6191948803856612       0.9422952448340058       0                        0                        0
0                         -1.903                   1.035237378111155        -0.630147172071306       0.15678510627999775      0.6217555980769899       0.9439481621593737       0                        0                        0
0                         -1.902                   1.0347104867354          -0.6300574100510044      0.1577298809008197       0.6243017691424366       0.9456010794847387       0                        0                        0
0                         -1.901                   1.0341864726336567       -0.6299666836522666      0.15867630843896724      0.6268334352513693       0.9472539968101101       0                        0                        0
0                         -1.9                     1.0336653356527477       -0.6298749928484126      0.15962439559265496      0.6293506584079632       0.9502596137782343       0                        0                        0
0                         -1.899                   1.0331468895178249       -0.6297823297700365      0.1605760096374248       0.631859890761718        0.9529684757621059       0                        0                        0
0                         -1.898                   1.03263101078032         -0.6296886972481401      0.16153033254417917      0.6343593335888605       0.9556773377459845       0                        0                        0
0                         -1.897                   1.0321176994402337       -0.6295940952827236      0.16248736431291697      0.6368489862825618       0.9583861997298585       0                        0                        0
0                         -1.896                   1.0316069554975655       -0.6294985238737868      0.16344710494363887      0.6393288482360736       0.9610950617137334       0                        0                        0
0                         -1.895                   1.031098778952316        -0.6294019830213299      0.16440955443634445      0.6417989188422885       0.9638039236976041       0                        0                        0
0                         -1.894                   1.0305931698044846       -0.6293044727253526      0.1653747127910343       0.6442591974943557       0.9665127856814811       0                        0                        0
0                         -1.893                   1.0300901280540717       -0.6292059929858552      0.1663425800077074       0.6467096835852543       0.9692216476653548       0                        0                        0
0                         -1.892                   1.029589653701077        -0.6291065438028376      0.1673131560863648       0.6491503765078711       0.9719305096492288       0                        0                        0
0                         -1.891                   1.0290917467455007       -0.6290061251762998      0.16828644102700585      0.6515812756549927       0.9746393716331017       0                        0                        0
0                         -1.89                    1.0285964071873426       -0.6289047371062418      0.16926243482963102      0.6540023804196308       0.9773482336169772       0                        0                        0
0                         -1.889                   1.028103635026603        -0.6288023795926638      0.17024113749423994      0.6564136901943932       0.9800570956008523       0                        0                        0
0                         -1.888                   1.0276134302632818       -0.6286990526355651      0.17122254902083284      0.6588152043721089       0.9827659575847278       0                        0                        0
0                         -1.887                   1.0271257928973787       -0.6285947562349465      0.17220666940940926      0.6612069223453964       0.9854748195686013       0                        0                        0
0                         -1.886                   1.0266407229288939       -0.6284894903908077      0.17319349865997002      0.6635888435069189       0.988183681552479        0                        0                        0
0                         -1.885                   1.0261582203578279       -0.6283832551031485      0.17418303677251415      0.6659609672492065       0.9908925435363511       0                        0                        0
0                         -1.884                   1.02567828518418         -0.6282760503719693      0.1751752837470427       0.6683232929648386       0.9936014055202224       0                        0                        0
0                         -1.883                   1.0252009174079504       -0.62816787619727        0.17617023958355463      0.6706758200462773       0.9963102675040997       0                        0                        0
0                         -1.882                   1.024726117029139        -0.6280587325790502      0.17716790428205065      0.6730185478858142       0.999019129487977        0                        0                        0
0                         -1.881                   1.024253884047746        -0.6279486195173103      0.17816827784253075      0.6753514758759966       1.0017279914718487       0                        0                        0
0                         -1.88                    1.0237842183850354       -0.6278375369893797      0.17917136406786668      0.677674631654716        1.0050769628113292       0                        0                        0
0                         -1.879                   1.023316960863234        -0.6277254804343734      0.18017802377251463      0.6799936051566454       1.0082424464847632       0                        0                        0
0                         -1.8780000000000001      1.0228519802476144       -0.6276124528485215      0.18118784896083598      0.6823045719267246       1.0114079301581873       0                        0                        0
0                         -1.877                   1.0223892765381772       -0.6274984542318243      0.182200839632831        0.6846075315363996       1.0145734138316247       0                        0                        0
0                         -1.876                   1.0219288497349224       -0.6273834845842815      0.18321699578849945      0.6869024835572296       1.0177388975050514       0                        0                        0
0                         -1.875                   1.0214706998378498       -0.6272675439058933      0.18423631742784113      0.6891894275605548       1.0209043811784857       0                        0                        0
0                         -1.874                   1.0210148268469594       -0.6271506321966597      0.18525880455085642      0.691468363117803        1.0240698648519169       0                        0                        0
0                         -1.873                   1.0205612307622514       -0.6270327494565806      0.18628445715754494      0.6937392898003076       1.027235348525347        0                        0                        0